 Entering Gaussian System, Link 0=g16
 Input=IM5_tsopt_F.com
 Output=IM5_tsopt_F.log
 Initial command:
 /home/apps/g16_C02_zen2/g16/l1.exe "/dev/shm/Gau-1289344.inp" -scrdir="/dev/shm/"
 Default CPUs for threads: 0,1,2,3,4,5,6,7
 Default is to use a total of   8 processors:
                                8 via shared-memory
                                1 via Linda
 Entering Link 1 = /home/apps/g16_C02_zen2/g16/l1.exe PID=   1289345.
  
 Copyright (c) 1988-2021, Gaussian, Inc.  All Rights Reserved.
  
 This is part of the Gaussian(R) 16 program.  It is based on
 the Gaussian(R) 09 system (copyright 2009, Gaussian, Inc.),
 the Gaussian(R) 03 system (copyright 2003, Gaussian, Inc.),
 the Gaussian(R) 98 system (copyright 1998, Gaussian, Inc.),
 the Gaussian(R) 94 system (copyright 1995, Gaussian, Inc.),
 the Gaussian 92(TM) system (copyright 1992, Gaussian, Inc.),
 the Gaussian 90(TM) system (copyright 1990, Gaussian, Inc.),
 the Gaussian 88(TM) system (copyright 1988, Gaussian, Inc.),
 the Gaussian 86(TM) system (copyright 1986, Carnegie Mellon
 University), and the Gaussian 82(TM) system (copyright 1983,
 Carnegie Mellon University). Gaussian is a federally registered
 trademark of Gaussian, Inc.
  
 This software contains proprietary and confidential information,
 including trade secrets, belonging to Gaussian, Inc.
  
 This software is provided under written license and may be
 used, copied, transmitted, or stored only in accord with that
 written license.
  
 The following legend is applicable only to US Government
 contracts under FAR:
  
                    RESTRICTED RIGHTS LEGEND
  
 Use, reproduction and disclosure by the US Government is
 subject to restrictions as set forth in subparagraphs (a)
 and (c) of the Commercial Computer Software - Restricted
 Rights clause in FAR 52.227-19.
  
 Gaussian, Inc.
 340 Quinnipiac St., Bldg. 40, Wallingford CT 06492
  
  
 ---------------------------------------------------------------
 Warning -- This program may not be used in any manner that
 competes with the business of Gaussian, Inc. or will provide
 assistance to any competitor of Gaussian, Inc.  The licensee
 of this program is prohibited from giving any competitor of
 Gaussian, Inc. access to this program.  By using this program,
 the user acknowledges that Gaussian, Inc. is engaged in the
 business of creating and licensing software in the field of
 computational chemistry and represents and warrants to the
 licensee that it is not a competitor of Gaussian, Inc. and that
 it will not use this program in any manner prohibited above.
 ---------------------------------------------------------------
  

 Cite this work as:
 Gaussian 16, Revision C.02,
 M. J. Frisch, G. W. Trucks, H. B. Schlegel, G. E. Scuseria, 
 M. A. Robb, J. R. Cheeseman, G. Scalmani, V. Barone, 
 G. A. Petersson, H. Nakatsuji, X. Li, M. Caricato, A. V. Marenich, 
 J. Bloino, B. G. Janesko, R. Gomperts, B. Mennucci, H. P. Hratchian, 
 J. V. Ortiz, A. F. Izmaylov, J. L. Sonnenberg, D. Williams-Young, 
 F. Ding, F. Lipparini, F. Egidi, J. Goings, B. Peng, A. Petrone, 
 T. Henderson, D. Ranasinghe, V. G. Zakrzewski, J. Gao, N. Rega, 
 G. Zheng, W. Liang, M. Hada, M. Ehara, K. Toyota, R. Fukuda, 
 J. Hasegawa, M. Ishida, T. Nakajima, Y. Honda, O. Kitao, H. Nakai, 
 T. Vreven, K. Throssell, J. A. Montgomery, Jr., J. E. Peralta, 
 F. Ogliaro, M. J. Bearpark, J. J. Heyd, E. N. Brothers, K. N. Kudin, 
 V. N. Staroverov, T. A. Keith, R. Kobayashi, J. Normand, 
 K. Raghavachari, A. P. Rendell, J. C. Burant, S. S. Iyengar, 
 J. Tomasi, M. Cossi, J. M. Millam, M. Klene, C. Adamo, R. Cammi, 
 J. W. Ochterski, R. L. Martin, K. Morokuma, O. Farkas, 
 J. B. Foresman, and D. J. Fox, Gaussian, Inc., Wallingford CT, 2019.
 
 ******************************************
 Gaussian 16:  AS64L-G16RevC.02  7-Dec-2021
                27-Mar-2025 
 ******************************************
 %nosave
 %chk=IM5_tsopt_F.chk
 SetSPE:  set environment variable "OMP_PROC_BIND" = "true"
 SetSPE:  set environment variable "OMP_PLACES" = "{0},{1},{2},{3},{4},{5},{6},{7}"
 ----------------------------------------------------------------------
 #p PM7 irc=(lqa,forward,rcfc,noeig,maxcyc=30,maxpoints=30,stepsize=15)
  geom=check guess=read IOp(2/15=3) IOp(2/12=3)
 ----------------------------------------------------------------------
 1/6=30,10=5,11=1,18=10,22=1,26=1,29=2,38=1,39=15,42=30,44=3,45=2,172=1/1,23;
 2/12=3,15=3,29=1,40=1/2;
 3/5=2,14=-4,25=1,41=4200000,71=2,116=-2,140=1/1,2,3;
 4/5=1,35=1/1;
 5/5=2,35=1,38=6/2;
 8/6=4,10=90,11=11/1;
 11/6=1,8=1,9=11,15=111,16=1/1,2,10;
 10/6=1,13=1/2;
 6/7=2,8=2,9=2,10=2,28=1/1;
 7/10=1,25=1/1,2,3,16;
 1/6=30,11=1,18=10,22=1,26=1,39=15,42=30,44=3,45=2/23(2);
 2/12=3,15=3,29=1/2;
 99/5=20/99;
 2/12=3,15=3,29=1/2;
 3/5=2,14=-2,25=1,41=4200000,71=2,135=20,140=1/1,2,3;
 4/5=5,16=3,35=1/1;
 5/5=2,35=1,38=5/2;
 8/6=4,10=90,11=11/1;
 11/6=1,8=1,9=11,15=111,16=1/1,2,10;
 10/6=1,13=1/2;
 7/10=1,25=1/1,2,3,16;
 1/6=30,11=1,18=10,22=1,26=1,39=15,42=30,44=3,45=2/23(-8);
 2/12=3,15=3,29=1/2;
 6/7=2,8=2,9=2,10=2,19=2,28=1/1;
 99/5=20,9=1/99;
 Leave Link    1 at Thu Mar 27 17:19:35 2025, MaxMem=           0 cpu:               0.0 elap:               0.0
 (Enter /home/apps/g16_C02_zen2/g16/l101.exe)
 -----
 title
 -----
 Structure from the checkpoint file:  "IM5_tsopt_F.chk"
 Charge =  1 Multiplicity = 1
 Redundant internal coordinates found in file.  (old form).
 C,0,-0.4260507518,-1.5972031184,0.1716510982
 C,0,-1.8417080466,-0.9833741028,-0.0046683778
 C,0,-2.0338036542,0.2711499635,0.8752012521
 C,0,0.7409380189,-0.7018582322,0.3199025716
 C,0,-1.5744548165,1.5316808604,0.1924928389
 C,0,0.8883421861,0.6975170969,0.1740537036
 C,0,-0.1090689884,1.7139429836,-0.201249265
 H,0,-0.4488376801,-2.3143709643,1.0305716084
 H,0,-1.565161083,0.1292006588,1.8651210372
 H,0,-0.2460940065,-2.271255321,-0.7101305082
 H,0,-3.1197334297,0.3821169453,1.117137282
 H,0,-2.3275216912,1.9111015415,-0.5204301943
 H,0,0.5591597004,0.1407887795,1.4902448449
 C,0,2.3445280895,1.087809417,0.2237549393
 H,0,2.5395728847,1.9595102351,0.8796291632
 H,0,2.686593835,1.4200385413,-0.784484149
 C,0,3.0943154422,-0.1766857203,0.6737760152
 H,0,4.0376942332,-0.3119118719,0.109554392
 H,0,3.406946114,-0.1089619307,1.7321138325
 C,0,2.1204421179,-1.3581273727,0.4487350737
 H,0,2.1517106481,-2.0640359349,1.3138031172
 C,0,2.4501763907,-2.1215228443,-0.8294172765
 H,0,3.4829345238,-2.5074539187,-0.8026071142
 H,0,1.8029631517,-2.9966189027,-0.975596869
 H,0,2.3708041862,-1.4932592627,-1.7261256829
 C,0,-0.7291790075,2.547696474,0.9123318436
 H,0,-0.9032675503,3.6138891723,0.7401623354
 H,0,-0.4398255139,2.4035903699,1.9484820443
 C,0,-2.0812777736,-0.6782349151,-1.4864721159
 H,0,-1.3059750073,-0.0340449635,-1.9125408786
 H,0,-2.110558445,-1.5951751775,-2.0904025827
 H,0,-3.046636202,-0.1762003832,-1.6404949381
 C,0,-2.8581956201,-2.0465606013,0.4461962273
 H,0,-2.7955950915,-2.2570067618,1.5196128199
 H,0,-3.8890238838,-1.7227216477,0.2421015792
 H,0,-2.7234836965,-2.9957864522,-0.0874366392
 C,0,0.2113030111,2.3722463189,-1.5179368088
 H,0,1.0773208655,3.0470155341,-1.4438839791
 H,0,0.4177159841,1.6398479746,-2.3111688276
 H,0,-0.6276134438,2.9904725335,-1.8804044126
 Recover connectivity data from disk.
 ITRead=  0  0  0  0  0  0  0  0  0  0  0  0  0  0  0  0  0  0  0  0
 ITRead=  0  0  0  0  0  0  0  0  0  0  0  0  0  0  0  0  0  0  0  0
 MicOpt= -1 -1 -1 -1 -1 -1 -1 -1 -1 -1 -1 -1 -1 -1 -1 -1 -1 -1 -1 -1
 MicOpt= -1 -1 -1 -1 -1 -1 -1 -1 -1 -1 -1 -1 -1 -1 -1 -1 -1 -1 -1 -1
 NAtoms=     40 NQM=       40 NQMF=       0 NMMI=      0 NMMIF=      0
                NMic=       0 NMicF=      0.
                    Isotopes and Nuclear Properties:
 (Nuclear quadrupole moments (NQMom) in fm**2, nuclear magnetic moments (NMagM)
  in nuclear magnetons)

  Atom         1           2           3           4           5           6           7           8           9          10
 IAtWgt=          12          12          12          12          12          12          12           1           1           1
 AtmWgt=  12.0000000  12.0000000  12.0000000  12.0000000  12.0000000  12.0000000  12.0000000   1.0078250   1.0078250   1.0078250
 NucSpn=           0           0           0           0           0           0           0           1           1           1
 AtZEff=   3.9000000   3.9000000   3.9000000   3.9000000   3.9000000   3.9000000   3.9000000   1.0000000   1.0000000   1.0000000
 NQMom=    0.0000000   0.0000000   0.0000000   0.0000000   0.0000000   0.0000000   0.0000000   0.0000000   0.0000000   0.0000000
 NMagM=    0.0000000   0.0000000   0.0000000   0.0000000   0.0000000   0.0000000   0.0000000   2.7928460   2.7928460   2.7928460
 AtZNuc=   6.0000000   6.0000000   6.0000000   6.0000000   6.0000000   6.0000000   6.0000000   1.0000000   1.0000000   1.0000000

  Atom        11          12          13          14          15          16          17          18          19          20
 IAtWgt=           1           1           1          12           1           1          12           1           1          12
 AtmWgt=   1.0078250   1.0078250   1.0078250  12.0000000   1.0078250   1.0078250  12.0000000   1.0078250   1.0078250  12.0000000
 NucSpn=           1           1           1           0           1           1           0           1           1           0
 AtZEff=   1.0000000   1.0000000   1.0000000   3.9000000   1.0000000   1.0000000   3.9000000   1.0000000   1.0000000   3.9000000
 NQMom=    0.0000000   0.0000000   0.0000000   0.0000000   0.0000000   0.0000000   0.0000000   0.0000000   0.0000000   0.0000000
 NMagM=    2.7928460   2.7928460   2.7928460   0.0000000   2.7928460   2.7928460   0.0000000   2.7928460   2.7928460   0.0000000
 AtZNuc=   1.0000000   1.0000000   1.0000000   6.0000000   1.0000000   1.0000000   6.0000000   1.0000000   1.0000000   6.0000000

  Atom        21          22          23          24          25          26          27          28          29          30
 IAtWgt=           1          12           1           1           1          12           1           1          12           1
 AtmWgt=   1.0078250  12.0000000   1.0078250   1.0078250   1.0078250  12.0000000   1.0078250   1.0078250  12.0000000   1.0078250
 NucSpn=           1           0           1           1           1           0           1           1           0           1
 AtZEff=   1.0000000   3.9000000   1.0000000   1.0000000   1.0000000   3.9000000   1.0000000   1.0000000   3.9000000   1.0000000
 NQMom=    0.0000000   0.0000000   0.0000000   0.0000000   0.0000000   0.0000000   0.0000000   0.0000000   0.0000000   0.0000000
 NMagM=    2.7928460   0.0000000   2.7928460   2.7928460   2.7928460   0.0000000   2.7928460   2.7928460   0.0000000   2.7928460
 AtZNuc=   1.0000000   6.0000000   1.0000000   1.0000000   1.0000000   6.0000000   1.0000000   1.0000000   6.0000000   1.0000000

  Atom        31          32          33          34          35          36          37          38          39          40
 IAtWgt=           1           1          12           1           1           1          12           1           1           1
 AtmWgt=   1.0078250   1.0078250  12.0000000   1.0078250   1.0078250   1.0078250  12.0000000   1.0078250   1.0078250   1.0078250
 NucSpn=           1           1           0           1           1           1           0           1           1           1
 AtZEff=   1.0000000   1.0000000   3.9000000   1.0000000   1.0000000   1.0000000   3.9000000   1.0000000   1.0000000   1.0000000
 NQMom=    0.0000000   0.0000000   0.0000000   0.0000000   0.0000000   0.0000000   0.0000000   0.0000000   0.0000000   0.0000000
 NMagM=    2.7928460   2.7928460   0.0000000   2.7928460   2.7928460   2.7928460   0.0000000   2.7928460   2.7928460   2.7928460
 AtZNuc=   1.0000000   1.0000000   6.0000000   1.0000000   1.0000000   1.0000000   6.0000000   1.0000000   1.0000000   1.0000000
 Leave Link  101 at Thu Mar 27 17:19:35 2025, MaxMem=  8053063680 cpu:               0.3 elap:               0.2
 (Enter /home/apps/g16_C02_zen2/g16/l123.exe)
 IRC-IRC-IRC-IRC-IRC-IRC-IRC-IRC-IRC-IRC-IRC-IRC-IRC-IRC-IRC-IRC-IRC-IRC
 ------------------------------------------------------------------------
 INPUT DATA FOR L123
 ------------------------------------------------------------------------
 GENERAL PARAMETERS:
 Rxn path following direction = Forward
 Maximum points per path      =  30
 Step size                    =   0.150 bohr
 Integration scheme           = LQA                                 
 Initial Hessian              = ReadFC from chk
 Hessian evaluation           = All updating
 Hessian updating method      = Bofill                              
 ------------------------------------------------------------------------
          ******** Start new reaction path calculation ********
 RCFC Option Requested - Data Read From Chk File:
 "IM5_tsopt_F.chk"
   Energy From Chk =      0.2754984

 Current Structure is TS -> form Hessian eigenvectors.
                            Recovering Hessian eigenvectors from chk file.
 Supplied step size of   0.1500 bohr.
    Integration on MW PES will use step size of   0.1858 sqrt(amu)*bohr.
 Point Number:   0          Path Number:   1
 Calculating another point on the path.
 Point Number  1 in FORWARD path direction.
 Using LQA Reaction Path Following.
 IRC-IRC-IRC-IRC-IRC-IRC-IRC-IRC-IRC-IRC-IRC-IRC-IRC-IRC-IRC-IRC-IRC-IRC
 Leave Link  123 at Thu Mar 27 17:19:35 2025, MaxMem=  8053063680 cpu:               0.2 elap:               0.1
 (Enter /home/apps/g16_C02_zen2/g16/l202.exe)
                          Input orientation:                          
 ---------------------------------------------------------------------
 Center     Atomic      Atomic             Coordinates (Angstroms)
 Number     Number       Type             X           Y           Z
 ---------------------------------------------------------------------
      1          6           0       -0.433251   -1.615119    0.161315
      2          6           0       -1.847932   -1.000477   -0.013807
      3          6           0       -2.040330    0.254280    0.866149
      4          6           0        0.732885   -0.713621    0.321912
      5          6           0       -1.581004    1.514821    0.183708
      6          6           0        0.884706    0.682953    0.153572
      7          6           0       -0.115294    1.696777   -0.209487
      8          1           0       -0.455731   -2.331696    1.020139
      9          1           0       -1.571703    0.111955    1.856063
     10          1           0       -0.250981   -2.285379   -0.720651
     11          1           0       -3.126306    0.364987    1.107946
     12          1           0       -2.333759    1.893924   -0.530004
     13          1           0        0.544899    0.047463    1.488961
     14          6           0        2.337257    1.070894    0.215256
     15          1           0        2.532455    1.943206    0.870893
     16          1           0        2.682782    1.404560   -0.792863
     17          6           0        3.087843   -0.193436    0.664670
     18          1           0        4.031196   -0.328700    0.100437
     19          1           0        3.400407   -0.125742    1.723018
     20          6           0        2.114265   -1.375233    0.439072
     21          1           0        2.145640   -2.081099    1.304026
     22          6           0        2.443837   -2.138224   -0.838442
     23          1           0        3.476025   -2.524947   -0.812093
     24          1           0        1.795563   -3.012711   -0.984379
     25          1           0        2.363172   -1.510415   -1.735005
     26          6           0       -0.735728    2.530536    0.903575
     27          1           0       -0.909028    3.597050    0.731044
     28          1           0       -0.446177    2.386103    1.939806
     29          6           0       -2.087962   -0.694928   -1.495590
     30          1           0       -1.312243   -0.051642   -1.921767
     31          1           0       -2.116834   -1.612234   -2.099184
     32          1           0       -3.053333   -0.193335   -1.649678
     33          6           0       -2.864885   -2.063356    0.437117
     34          1           0       -2.801766   -2.273980    1.510445
     35          1           0       -3.895576   -1.739699    0.232970
     36          1           0       -2.729568   -3.012604   -0.096459
     37          6           0        0.205087    2.355490   -1.526999
     38          1           0        1.070474    3.031070   -1.453468
     39          1           0        0.410373    1.623304   -2.320997
     40          1           0       -0.634668    2.973270   -1.889021
 ---------------------------------------------------------------------
                    Distance matrix (angstroms):
                    1          2          3          4          5
     1  C    0.000000
     2  C    1.552345   0.000000
     3  C    2.564011   1.544589   0.000000
     4  C    1.482688   2.618322   2.987264   0.000000
     5  C    3.333822   2.537122   1.505214   3.215453   0.000000
     6  C    2.649190   3.213917   3.040948   1.414852   2.602430
     7  C    3.347723   3.211775   2.635062   2.609945   1.528403
     8  H    1.118734   2.186187   3.036765   2.125676   4.094088
     9  H    2.674141   2.193222   1.104444   2.889000   2.182863
    10  H    1.122645   2.168145   3.488491   2.127288   4.126542
    11  H    3.474116   2.181069   1.118064   4.083455   2.136421
    12  H    4.050092   2.979940   2.173426   4.114530   1.104421
    13  H    2.341709   3.013657   2.667223   1.405912   2.894182
    14  C    3.859183   4.675345   4.500421   2.402058   3.943455
    15  H    4.686213   5.351238   4.874716   3.255543   4.192407
    16  H    4.442812   5.188303   5.136463   3.087315   4.375582
    17  C    3.830489   5.047129   5.151621   2.435960   4.994757
    18  H    4.646490   5.918486   6.147325   3.328073   5.907817
    19  H    4.399328   5.597033   5.520892   3.069914   5.465837
    20  C    2.573817   4.005564   4.483120   1.536121   4.698153
    21  H    2.858951   4.342009   4.813322   2.197822   5.298455
    22  C    3.090435   4.515946   5.360734   2.510632   5.530721
    23  H    4.130103   5.595158   6.400842   3.477311   6.548656
    24  H    2.869405   4.273892   5.367659   2.849824   5.767511
    25  H    3.380381   4.577768   5.410267   2.742923   5.328231
    26  C    4.222428   3.814005   2.623877   3.608283   1.504785
    27  H    5.264757   4.751167   3.531601   4.630891   2.255394
    28  H    4.378696   4.153364   2.870318   3.689994   2.265136
    29  C    2.515981   1.531880   2.545796   3.355718   2.821354
    30  H    2.748876   2.197171   2.897615   3.107228   2.638004
    31  H    2.818567   2.189830   3.504701   3.845792   3.908604
    32  H    3.487980   2.186446   2.748804   4.300386   2.906348
    33  C    2.487937   1.538584   2.497078   3.844347   3.809976
    34  H    2.804303   2.203396   2.717904   4.042411   4.195892
    35  H    3.465307   2.190935   2.796213   4.741666   3.993942
    36  H    2.700460   2.198356   3.474794   4.177193   4.679238
    37  C    4.361607   4.215109   3.896683   3.621668   2.612156
    38  H    5.143519   5.181031   4.771612   4.157962   3.465500
    39  H    4.166648   4.160203   4.247125   3.542626   3.201702
    40  H    5.029688   4.558409   4.118222   4.511273   2.705334
                    6          7          8          9         10
     6  C    0.000000
     7  C    1.469575   0.000000
     8  H    3.411132   4.225692   0.000000
     9  H    3.042772   2.983166   2.813467   0.000000
    10  H    3.296217   4.017121   1.753401   3.759118   0.000000
    11  H    4.135233   3.546194   3.796286   1.743702   4.316909
    12  H    3.506030   2.250153   4.877069   3.073997   4.673423
    13  H    1.517426   2.457807   2.623252   2.149169   3.310281
    14  C    1.504729   2.566543   4.475069   4.346468   4.340446
    15  H    2.194963   2.870282   5.217885   4.600886   5.306737
    16  H    2.156277   2.873142   5.205463   5.175739   4.714639
    17  C    2.425508   3.820620   4.153965   4.819133   4.176492
    18  H    3.305551   4.625148   4.999035   5.888028   4.779102
    19  H    3.073418   4.406393   4.497785   4.979566   4.895730
    20  C    2.414427   3.850819   2.803095   4.219710   2.787062
    21  H    3.248613   4.655630   2.628786   4.351191   3.144016
    22  C    3.372540   4.653168   3.449529   5.333688   2.701402
    23  H    4.235336   5.575273   4.342018   6.289028   3.735817
    24  H    3.972723   5.141120   3.090339   5.400938   2.187900
    25  H    3.250146   4.330829   4.026355   5.568761   2.909172
    26  C    2.569411   1.522826   4.871682   2.730498   5.105499
    27  H    3.470291   2.263989   5.953074   3.721651   6.094539
    28  H    2.804033   2.281252   4.806611   2.538812   5.379486
    29  C    3.668113   3.356447   3.416443   3.485852   2.550405
    30  H    3.110184   2.724254   3.819303   3.790261   2.749280
    31  H    4.399095   4.304262   3.606532   4.349020   2.415551
    32  H    4.419021   3.778723   4.295120   3.818200   3.618414
    33  C    4.656398   4.702866   2.493180   2.901328   2.867440
    34  H    4.916771   5.093350   2.397418   2.706510   3.388867
    35  H    5.359725   5.127931   3.578076   3.385770   3.806603
    36  H    5.175194   5.387529   2.623121   3.862106   2.657417
    37  C    2.466491   1.507443   5.375342   4.431200   4.732426
    38  H    2.851445   2.175746   6.099778   5.143474   5.527014
    39  H    2.689376   2.177200   5.249319   4.864219   4.275078
    40  H    3.424359   2.172560   6.052925   4.805290   5.400527
                   11         12         13         14         15
    11  H    0.000000
    12  H    2.376691   0.000000
    13  H    3.704557   3.971437   0.000000
    14  C    5.580836   4.801165   2.425342   0.000000
    15  H    5.879503   5.064088   2.815356   1.108553   0.000000
    16  H    6.199943   5.047203   3.408662   1.116702   1.755227
    17  C    6.254916   5.931112   2.684036   1.537492   2.217256
    18  H    7.261275   6.771276   3.771440   2.200336   2.828672
    19  H    6.573972   6.483504   2.870314   2.198993   2.400001
    20  C    5.562315   5.604589   2.364157   2.466446   3.372446
    21  H    5.815084   6.263345   2.669709   3.340240   4.065989
    22  C    6.409446   6.259296   3.714835   3.379361   4.425806
    23  H    7.458489   7.304765   4.528095   3.909260   4.866946
    24  H    6.325462   6.429061   4.128709   4.290500   5.342861
    25  H    6.460177   5.924755   4.015851   3.235328   4.329765
    26  C    3.232064   2.239225   2.854529   3.470962   3.320699
    27  H    3.937589   2.553573   3.909976   4.145584   3.820807
    28  H    3.458322   3.147248   2.579676   3.528648   3.195463
    29  C    2.996661   2.773973   4.048537   5.062380   5.823079
    30  H    3.555779   2.601101   3.884825   4.375592   5.153646
    31  H    3.900528   3.847405   4.765942   5.691638   6.563414
    32  H    2.814523   2.475501   4.780828   5.842493   6.489924
    33  C    2.532825   4.108222   4.145909   6.077420   6.735873
    34  H    2.689141   4.664106   4.073049   6.266998   6.829905
    35  H    2.405632   4.027980   4.948665   6.837248   7.435746
    36  H    3.607785   4.941523   4.753914   6.514971   7.292785
    37  C    4.690759   2.766366   3.812935   3.038385   3.366972
    38  H    5.593014   3.706034   4.223272   2.869088   2.953555
    39  H    5.084202   3.288031   4.125185   3.232742   3.846262
    40  H    4.689692   2.428750   4.621957   4.108449   4.325369
                   16         17         18         19         20
    16  H    0.000000
    17  C    2.200470   0.000000
    18  H    2.370738   1.107507   0.000000
    19  H    3.030919   1.105612   1.752671   0.000000
    20  C    3.093238   1.547705   2.210097   2.205426   0.000000
    21  H    4.103083   2.204494   2.841628   2.360808   1.116861
    22  C    3.551125   2.540924   2.583714   3.395024   1.524079
    23  H    4.008819   2.787017   2.442218   3.491231   2.177533
    24  H    4.509558   3.512501   3.657704   4.270845   2.192970
    25  H    3.080075   2.831612   2.747290   3.866665   2.192451
    26  C    3.978936   4.700722   5.616389   4.983463   4.857289
    27  H    4.475534   5.508826   6.341530   5.780521   5.826590
    28  H    4.268641   4.557333   5.549802   4.599192   4.791212
    29  C    5.259437   5.630913   6.334472   6.387927   4.675944
    30  H    4.399451   5.105930   5.720002   5.958105   4.366511
    31  H    5.817545   6.061398   6.654628   6.874506   4.939749
    32  H    6.015847   6.562793   7.298753   7.282198   5.697705
    33  C    6.657019   6.243665   7.118871   6.682946   5.026475
    34  H    6.994080   6.303292   7.243039   6.567120   5.111062
    35  H    7.362981   7.165573   8.052465   7.619479   6.024409
    36  H    7.020672   6.509170   7.276677   7.015772   5.141060
    37  C    2.753578   4.428399   4.948994   5.189334   4.629113
    38  H    2.383583   4.353587   4.740100   5.048178   4.907821
    39  H    2.747160   4.402681   4.773262   5.324803   4.417290
    40  H    3.829867   5.514204   6.052374   6.239593   5.646780
                   21         22         23         24         25
    21  H    0.000000
    22  C    2.163875   0.000000
    23  H    2.538679   1.102570   0.000000
    24  H    2.495447   1.098310   1.758280   0.000000
    25  H    3.099793   1.097487   1.766206   1.772714   0.000000
    26  C    5.452506   5.911140   6.800021   6.379607   5.735379
    27  H    6.473074   6.826299   7.686925   7.344823   6.547892
    28  H    5.203616   6.044864   6.861125   6.536317   6.048102
    29  C    5.261436   4.801266   5.896957   4.551398   4.531549
    30  H    5.146008   4.431203   5.502375   4.393756   3.958735
    31  H    5.474519   4.760868   5.811173   4.302439   4.495937
    32  H    6.270355   5.887239   6.983587   5.648301   5.574990
    33  C    5.084998   5.460328   6.479254   4.964041   5.688272
    34  H    4.955465   5.749092   6.698345   5.282547   6.147566
    35  H    6.144917   6.441654   7.486606   5.957479   6.564863
    36  H    5.157199   5.298981   6.265726   4.611421   5.556744
    37  C    5.609258   5.067502   5.918513   5.625089   4.432360
    38  H    5.907117   5.383863   6.088297   6.105169   4.730266
    39  H    5.465762   4.525709   5.374291   5.019754   3.738583
    40  H    6.593353   6.058736   6.948954   6.523524   5.395757
                   26         27         28         29         30
    26  C    0.000000
    27  H    1.094190   0.000000
    28  H    1.085576   1.772492   0.000000
    29  C    4.241244   4.976832   4.897974   0.000000
    30  H    3.870732   4.529121   4.648055   1.094159   0.000000
    31  H    5.299676   6.050258   5.923785   1.098458   1.764736
    32  H    4.394300   4.963154   5.131779   1.098763   1.767909
    33  C    5.084755   5.995995   5.282604   2.492300   3.467279
    34  H    5.264996   6.217629   5.239229   3.469750   4.351729
    35  H    5.354369   6.135832   5.642152   2.710523   3.763780
    36  H    5.975104   6.905552   6.205343   2.782238   3.756043
    37  C    2.612176   2.807397   3.527579   3.816295   2.872702
    38  H    3.011403   3.001809   3.772336   4.884727   3.924252
    39  H    3.540407   3.866710   4.412481   3.506732   2.435617
    40  H    2.829279   2.707234   3.878171   3.965164   3.100043
                   31         32         33         34         35
    31  H    0.000000
    32  H    1.758511   0.000000
    33  C    2.682520   2.808417   0.000000
    34  H    3.733157   3.791932   1.095618   0.000000
    35  H    2.935833   2.577786   1.099433   1.764601   0.000000
    36  H    2.519402   3.235057   1.097309   1.770005   1.757380
    37  C    4.632661   4.138703   5.727886   6.300732   6.056691
    38  H    5.668876   5.238423   6.709287   7.205732   7.089849
    39  H    4.111530   3.968388   5.650307   6.339290   6.031064
    40  H    4.823674   3.991818   5.979330   6.617123   6.111337
                   36         37         38         39         40
    36  H    0.000000
    37  C    6.282919   0.000000
    38  H    7.266896   1.100323   0.000000
    39  H    6.024901   1.099396   1.780491   0.000000
    40  H    6.590339   1.103585   1.760840   1.761000   0.000000
 Symmetry turned off by external request.
 Stoichiometry    C15H25
 Rotational constants (GHZ):           0.7707147           0.5736765           0.4044144
 Leave Link  202 at Thu Mar 27 17:19:36 2025, MaxMem=  8053063680 cpu:               0.2 elap:               0.0
 (Enter /home/apps/g16_C02_zen2/g16/l301.exe)
 Standard basis: VSTO-6G (5D, 7F)
 Ernie: Thresh=  0.10000D-02 Tol=  0.10000D-05 Strict=F.
 EHB=         0.000000000 Number of Hydrogen Bond terms=           0
  NNHCO=     0 NNPyr=     0 NCTC=     0               EPep=         0.000000000
    EC=       541.245064766  ECS=         6.752612776   EG=         1.378829359
   EHC=         0.000918164  EAt=       -73.943797150  AtH=         6.160703796
 EPDDG=         0.000000000  ECC=       549.377425065 EAtT=        80.104500946
  EHyb=         0.000000000
    85 basis functions,   510 primitive gaussians,    85 cartesian basis functions
    42 alpha electrons       42 beta electrons
       nuclear repulsion energy       629.4819260106 Hartrees.
 IExCor=    0 DFT=F Ex=HF Corr=None ExCW=0 ScaHFX=  1.000000
 ScaDFX=  1.000000  1.000000  1.000000  1.000000 ScalE2=  1.000000  1.000000
 IRadAn=      5 IRanWt=     -1 IRanGd=            0 ICorTp=0 IEmpDi=251
 Integral buffers will be    131072 words long.
 Regular integral format.
 Two-electron integral symmetry is turned off.
 R6Disp:  PM7 Dispersion energy=       -0.0121258838 Hartrees.
 Nuclear repulsion after empirical dispersion term =      629.4698001268 Hartrees.
 Leave Link  301 at Thu Mar 27 17:19:36 2025, MaxMem=  8053063680 cpu:               0.3 elap:               0.1
 (Enter /home/apps/g16_C02_zen2/g16/l302.exe)
 Do NDO integrals.
 NPDir=0 NMtPBC=     1 NCelOv=     1 NCel=       1 NClECP=     1 NCelD=      1
         NCelK=      1 NCelE2=     1 NClLst=     1 CellRange=     0.0.
 One-electron integrals computed using PRISM.
 NBasis=    85 RedAO= F EigKep=  0.00D+00  NBF=    85
 NBsUse=    85 1.00D-04 EigRej=  0.00D+00 NBFU=    85
 Leave Link  302 at Thu Mar 27 17:19:36 2025, MaxMem=  8053063680 cpu:               0.4 elap:               0.1
 (Enter /home/apps/g16_C02_zen2/g16/l303.exe)
 DipDrv:  MaxL=1.
 Leave Link  303 at Thu Mar 27 17:19:36 2025, MaxMem=  8053063680 cpu:               0.1 elap:               0.0
 (Enter /home/apps/g16_C02_zen2/g16/l401.exe)
 Initial guess from the checkpoint file:  "IM5_tsopt_F.chk"
 B after Tr=    -0.009657   -0.030222   -0.025433
         Rot=   -0.005689    0.002526    0.999962   -0.006064 Ang= 180.65 deg.
 Guess basis will be translated and rotated to current coordinates.
 JPrj=0 DoOrth=T DoCkMO=T.
 Leave Link  401 at Thu Mar 27 17:19:36 2025, MaxMem=  8053063680 cpu:               0.1 elap:               0.0
 (Enter /home/apps/g16_C02_zen2/g16/l502.exe)
 Keep J ints in memory in canonical form, NReq=876540.
 FoFCou: FMM=F IPFlag=           0 FMFlag=           0 FMFlg1=           0
         NFxFlg=           0 DoJE=F BraDBF=F KetDBF=F FulRan=T
         wScrn=  0.000000 ICntrl=       600 IOpCl=  2 I1Cent=           0 NGrid=           0
         NMat0=    1 NMatS0=    175 NMatT0=    0 NMatD0=    1 NMtDS0=    0 NMtDT0=    0
 Symmetry not used in FoFCou.
 Two-electron integral symmetry not used.
 Closed shell SCF:
 Using DIIS extrapolation, IDIIS=  1040.
 Overlap will be assumed to be unity.
 NGot=  8053063680 LenX=  8052971523 LenY=  8052963857
 Requested convergence on RMS density matrix=1.00D-08 within 128 cycles.
 Requested convergence on MAX density matrix=1.00D-06.
 Requested convergence on             energy=1.00D-06.
 No special actions if energy rises.

 Cycle   1  Pass 1  IDiag  1:
 E= 0.276969168196501    
 DIIS: error= 3.77D-03 at cycle   1 NSaved=   1.
 NSaved= 1 IEnMin= 1 EnMin= 0.276969168196501     IErMin= 1 ErrMin= 3.77D-03
 ErrMax= 3.77D-03  0.00D+00 EMaxC= 1.00D-01 BMatC= 3.20D-04 BMatP= 3.20D-04
 IDIUse=3 WtCom= 9.62D-01 WtEn= 3.77D-02
 Coeff-Com:  0.100D+01
 Coeff-En:   0.100D+01
 Coeff:      0.100D+01
 GapD=    2.000 DampG=2.000 DampE=1.000 DampFc=2.0000 IDamp=-1.
 RMSDP=5.00D-04 MaxDP=1.46D-02              OVMax= 0.00D+00

 Cycle   2  Pass 1  IDiag  3:
 E= 0.275513183453995     Delta-E=       -0.001455984743 Rises=F Damp=F
 DIIS: error= 1.75D-03 at cycle   2 NSaved=   2.
 NSaved= 2 IEnMin= 2 EnMin= 0.275513183453995     IErMin= 2 ErrMin= 1.75D-03
 ErrMax= 1.75D-03  0.00D+00 EMaxC= 1.00D-01 BMatC= 6.78D-05 BMatP= 3.20D-04
 IDIUse=3 WtCom= 9.83D-01 WtEn= 1.75D-02
 Coeff-Com: -0.483D+00 0.148D+01
 Coeff-En:   0.000D+00 0.100D+01
 Coeff:     -0.475D+00 0.148D+01
 Gap=     0.341 Goal=   None    Shift=    0.000
 RMSDP=3.75D-04 MaxDP=1.02D-02 DE=-1.46D-03 OVMax= 8.00D-03

 Cycle   3  Pass 1  IDiag  3:
 E= 0.275027583634142     Delta-E=       -0.000485599820 Rises=F Damp=F
 DIIS: error= 7.29D-04 at cycle   3 NSaved=   3.
 NSaved= 3 IEnMin= 3 EnMin= 0.275027583634142     IErMin= 3 ErrMin= 7.29D-04
 ErrMax= 7.29D-04  0.00D+00 EMaxC= 1.00D-01 BMatC= 1.09D-05 BMatP= 6.78D-05
 IDIUse=3 WtCom= 9.93D-01 WtEn= 7.29D-03
 Coeff-Com:  0.227D+00-0.962D+00 0.174D+01
 Coeff-En:   0.000D+00 0.000D+00 0.100D+01
 Coeff:      0.225D+00-0.955D+00 0.173D+01
 Gap=     0.341 Goal=   None    Shift=    0.000
 RMSDP=2.21D-04 MaxDP=6.32D-03 DE=-4.86D-04 OVMax= 5.21D-03

 Cycle   4  Pass 1  IDiag  3:
 E= 0.274921272092001     Delta-E=       -0.000106311542 Rises=F Damp=F
 DIIS: error= 2.01D-04 at cycle   4 NSaved=   4.
 NSaved= 4 IEnMin= 4 EnMin= 0.274921272092001     IErMin= 4 ErrMin= 2.01D-04
 ErrMax= 2.01D-04  0.00D+00 EMaxC= 1.00D-01 BMatC= 1.18D-06 BMatP= 1.09D-05
 IDIUse=3 WtCom= 9.98D-01 WtEn= 2.01D-03
 Coeff-Com: -0.182D-01 0.175D+00-0.729D+00 0.157D+01
 Coeff-En:   0.000D+00 0.000D+00 0.000D+00 0.100D+01
 Coeff:     -0.182D-01 0.175D+00-0.728D+00 0.157D+01
 Gap=     0.342 Goal=   None    Shift=    0.000
 RMSDP=8.57D-05 MaxDP=2.42D-03 DE=-1.06D-04 OVMax= 2.11D-03

 Cycle   5  Pass 1  IDiag  3:
 E= 0.274909622247492     Delta-E=       -0.000011649845 Rises=F Damp=F
 DIIS: error= 2.50D-05 at cycle   5 NSaved=   5.
 NSaved= 5 IEnMin= 5 EnMin= 0.274909622247492     IErMin= 5 ErrMin= 2.50D-05
 ErrMax= 2.50D-05  0.00D+00 EMaxC= 1.00D-01 BMatC= 8.07D-08 BMatP= 1.18D-06
 IDIUse=1 WtCom= 1.00D+00 WtEn= 0.00D+00
 Coeff-Com:  0.148D-02-0.393D-01 0.230D+00-0.671D+00 0.148D+01
 Coeff:      0.148D-02-0.393D-01 0.230D+00-0.671D+00 0.148D+01
 Gap=     0.342 Goal=   None    Shift=    0.000
 RMSDP=1.59D-05 MaxDP=3.15D-04 DE=-1.16D-05 OVMax= 3.93D-04

 Cycle   6  Pass 1  IDiag  3:
 E= 0.274909011456657     Delta-E=       -0.000000610791 Rises=F Damp=F
 DIIS: error= 1.19D-05 at cycle   6 NSaved=   6.
 NSaved= 6 IEnMin= 6 EnMin= 0.274909011456657     IErMin= 6 ErrMin= 1.19D-05
 ErrMax= 1.19D-05  0.00D+00 EMaxC= 1.00D-01 BMatC= 9.49D-09 BMatP= 8.07D-08
 IDIUse=1 WtCom= 1.00D+00 WtEn= 0.00D+00
 Coeff-Com: -0.120D-02 0.145D-01-0.735D-01 0.222D+00-0.750D+00 0.159D+01
 Coeff:     -0.120D-02 0.145D-01-0.735D-01 0.222D+00-0.750D+00 0.159D+01
 Gap=     0.342 Goal=   None    Shift=    0.000
 RMSDP=5.74D-06 MaxDP=9.19D-05 DE=-6.11D-07 OVMax= 1.52D-04

 Cycle   7  Pass 1  IDiag  3:
 E= 0.274908935252370     Delta-E=       -0.000000076204 Rises=F Damp=F
 DIIS: error= 3.01D-06 at cycle   7 NSaved=   7.
 NSaved= 7 IEnMin= 7 EnMin= 0.274908935252370     IErMin= 7 ErrMin= 3.01D-06
 ErrMax= 3.01D-06  0.00D+00 EMaxC= 1.00D-01 BMatC= 7.00D-10 BMatP= 9.49D-09
 IDIUse=1 WtCom= 1.00D+00 WtEn= 0.00D+00
 Coeff-Com:  0.458D-03-0.522D-02 0.250D-01-0.735D-01 0.258D+00-0.756D+00
 Coeff-Com:  0.155D+01
 Coeff:      0.458D-03-0.522D-02 0.250D-01-0.735D-01 0.258D+00-0.756D+00
 Coeff:      0.155D+01
 Gap=     0.342 Goal=   None    Shift=    0.000
 RMSDP=1.65D-06 MaxDP=2.77D-05 DE=-7.62D-08 OVMax= 4.39D-05

 Cycle   8  Pass 1  IDiag  3:
 E= 0.274908929701610     Delta-E=       -0.000000005551 Rises=F Damp=F
 DIIS: error= 7.02D-07 at cycle   8 NSaved=   8.
 NSaved= 8 IEnMin= 8 EnMin= 0.274908929701610     IErMin= 8 ErrMin= 7.02D-07
 ErrMax= 7.02D-07  0.00D+00 EMaxC= 1.00D-01 BMatC= 4.01D-11 BMatP= 7.00D-10
 IDIUse=1 WtCom= 1.00D+00 WtEn= 0.00D+00
 Coeff-Com: -0.146D-03 0.169D-02-0.817D-02 0.236D-01-0.801D-01 0.251D+00
 Coeff-Com: -0.666D+00 0.148D+01
 Coeff:     -0.146D-03 0.169D-02-0.817D-02 0.236D-01-0.801D-01 0.251D+00
 Coeff:     -0.666D+00 0.148D+01
 Gap=     0.342 Goal=   None    Shift=    0.000
 RMSDP=3.19D-07 MaxDP=4.94D-06 DE=-5.55D-09 OVMax= 7.22D-06

 Cycle   9  Pass 1  IDiag  3:
 E= 0.274908929432513     Delta-E=       -0.000000000269 Rises=F Damp=F
 DIIS: error= 1.83D-07 at cycle   9 NSaved=   9.
 NSaved= 9 IEnMin= 9 EnMin= 0.274908929432513     IErMin= 9 ErrMin= 1.83D-07
 ErrMax= 1.83D-07  0.00D+00 EMaxC= 1.00D-01 BMatC= 3.09D-12 BMatP= 4.01D-11
 IDIUse=1 WtCom= 1.00D+00 WtEn= 0.00D+00
 Coeff-Com:  0.344D-04-0.428D-03 0.216D-02-0.639D-02 0.221D-01-0.695D-01
 Coeff-Com:  0.194D+00-0.627D+00 0.149D+01
 Coeff:      0.344D-04-0.428D-03 0.216D-02-0.639D-02 0.221D-01-0.695D-01
 Coeff:      0.194D+00-0.627D+00 0.149D+01
 Gap=     0.342 Goal=   None    Shift=    0.000
 RMSDP=8.63D-08 MaxDP=1.43D-06 DE=-2.69D-10 OVMax= 1.89D-06

 Cycle  10  Pass 1  IDiag  3:
 E= 0.274908929409548     Delta-E=       -0.000000000023 Rises=F Damp=F
 DIIS: error= 4.87D-08 at cycle  10 NSaved=  10.
 NSaved=10 IEnMin=10 EnMin= 0.274908929409548     IErMin=10 ErrMin= 4.87D-08
 ErrMax= 4.87D-08  0.00D+00 EMaxC= 1.00D-01 BMatC= 2.05D-13 BMatP= 3.09D-12
 IDIUse=1 WtCom= 1.00D+00 WtEn= 0.00D+00
 Coeff-Com: -0.139D-04 0.157D-03-0.764D-03 0.225D-02-0.779D-02 0.244D-01
 Coeff-Com: -0.670D-01 0.223D+00-0.695D+00 0.152D+01
 Coeff:     -0.139D-04 0.157D-03-0.764D-03 0.225D-02-0.779D-02 0.244D-01
 Coeff:     -0.670D-01 0.223D+00-0.695D+00 0.152D+01
 Gap=     0.342 Goal=   None    Shift=    0.000
 RMSDP=2.22D-08 MaxDP=4.24D-07 DE=-2.30D-11 OVMax= 4.38D-07

 Cycle  11  Pass 1  IDiag  3:
 E= 0.274908929408070     Delta-E=       -0.000000000001 Rises=F Damp=F
 DIIS: error= 1.26D-08 at cycle  11 NSaved=  11.
 NSaved=11 IEnMin=11 EnMin= 0.274908929408070     IErMin=11 ErrMin= 1.26D-08
 ErrMax= 1.26D-08  0.00D+00 EMaxC= 1.00D-01 BMatC= 1.48D-14 BMatP= 2.05D-13
 IDIUse=1 WtCom= 1.00D+00 WtEn= 0.00D+00
 Coeff-Com:  0.421D-05-0.566D-04 0.287D-03-0.857D-03 0.297D-02-0.931D-02
 Coeff-Com:  0.255D-01-0.834D-01 0.274D+00-0.777D+00 0.157D+01
 Coeff:      0.421D-05-0.566D-04 0.287D-03-0.857D-03 0.297D-02-0.931D-02
 Coeff:      0.255D-01-0.834D-01 0.274D+00-0.777D+00 0.157D+01
 Gap=     0.342 Goal=   None    Shift=    0.000
 RMSDP=6.16D-09 MaxDP=1.19D-07 DE=-1.48D-12 OVMax= 9.68D-08

 Cycle  12  Pass 2  IDiag  1:
 SCF Done:  E(RPM7) =  0.274908929408     A.U. after   12 cycles
            NFock= 11  Conv=0.62D-08     -V/T= 1.0022
 KE=-1.266347789480D+02 PE=-1.066929932977D+03 EE= 5.643698207275D+02
 Leave Link  502 at Thu Mar 27 17:19:36 2025, MaxMem=  8053063680 cpu:               0.2 elap:               0.0
 (Enter /home/apps/g16_C02_zen2/g16/l801.exe)
 Range of M.O.s used for correlation:     1    85
 NBasis=    85 NAE=    42 NBE=    42 NFC=     0 NFV=     0
 NROrb=     85 NOA=    42 NOB=    42 NVA=    43 NVB=    43
 Leave Link  801 at Thu Mar 27 17:19:36 2025, MaxMem=  8053063680 cpu:               0.0 elap:               0.0
 (Enter /home/apps/g16_C02_zen2/g16/l1101.exe)
 Leave Link 1101 at Thu Mar 27 17:19:36 2025, MaxMem=  8053063680 cpu:               0.0 elap:               0.0
 (Enter /home/apps/g16_C02_zen2/g16/l1102.exe)
 Symmetrizing basis deriv contribution to polar:
 IMax=3 JMax=2 DiffMx= 0.00D+00
 Leave Link 1102 at Thu Mar 27 17:19:36 2025, MaxMem=  8053063680 cpu:               0.0 elap:               0.0
 (Enter /home/apps/g16_C02_zen2/g16/l1110.exe)
 Leave Link 1110 at Thu Mar 27 17:19:36 2025, MaxMem=  8053063680 cpu:               0.0 elap:               0.0
 (Enter /home/apps/g16_C02_zen2/g16/l1002.exe)
 Minotr:  Closed shell wavefunction.
 Leave Link 1002 at Thu Mar 27 17:19:36 2025, MaxMem=  8053063680 cpu:               0.0 elap:               0.0
 (Enter /home/apps/g16_C02_zen2/g16/l601.exe)
 Copying SCF densities to generalized density rwf, IOpCl= 0 IROHF=0.

 **********************************************************************

            Population analysis using the SCF Density.

 **********************************************************************

 Alpha  occ. eigenvalues --   -1.35375  -1.27620  -1.22428  -1.13264  -1.11502
 Alpha  occ. eigenvalues --   -1.08344  -1.01543  -1.00231  -0.99711  -0.97358
 Alpha  occ. eigenvalues --   -0.90734  -0.87575  -0.86279  -0.81267  -0.78263
 Alpha  occ. eigenvalues --   -0.77470  -0.74539  -0.74140  -0.71824  -0.69220
 Alpha  occ. eigenvalues --   -0.68840  -0.67625  -0.66377  -0.65833  -0.64940
 Alpha  occ. eigenvalues --   -0.64672  -0.63474  -0.62704  -0.62016  -0.61527
 Alpha  occ. eigenvalues --   -0.61082  -0.59666  -0.59208  -0.58770  -0.58222
 Alpha  occ. eigenvalues --   -0.57984  -0.57250  -0.56251  -0.55485  -0.54734
 Alpha  occ. eigenvalues --   -0.53417  -0.52490
 Alpha virt. eigenvalues --   -0.18339  -0.10577  -0.06738  -0.05730  -0.04058
 Alpha virt. eigenvalues --   -0.03506  -0.02270  -0.01676  -0.00738  -0.00384
 Alpha virt. eigenvalues --    0.00324   0.00602   0.00963   0.01728   0.01820
 Alpha virt. eigenvalues --    0.02115   0.02639   0.03816   0.03885   0.05164
 Alpha virt. eigenvalues --    0.05572   0.06035   0.06790   0.06919   0.07363
 Alpha virt. eigenvalues --    0.07412   0.07741   0.07927   0.07971   0.08342
 Alpha virt. eigenvalues --    0.08778   0.09350   0.09456   0.09962   0.10001
 Alpha virt. eigenvalues --    0.10189   0.10323   0.10371   0.10959   0.12066
 Alpha virt. eigenvalues --    0.12459   0.14405   0.14742
          Condensed to atoms (all electrons):
               1          2          3          4          5          6
     1  C    4.357850   0.000000   0.000000   0.000000   0.000000   0.000000
     2  C    0.000000   3.882998   0.000000   0.000000   0.000000   0.000000
     3  C    0.000000   0.000000   4.326346   0.000000   0.000000   0.000000
     4  C    0.000000   0.000000   0.000000   3.970684   0.000000   0.000000
     5  C    0.000000   0.000000   0.000000   0.000000   4.119262   0.000000
     6  C    0.000000   0.000000   0.000000   0.000000   0.000000   3.803355
     7  C    0.000000   0.000000   0.000000   0.000000   0.000000   0.000000
     8  H    0.000000   0.000000   0.000000   0.000000   0.000000   0.000000
     9  H    0.000000   0.000000   0.000000   0.000000   0.000000   0.000000
    10  H    0.000000   0.000000   0.000000   0.000000   0.000000   0.000000
    11  H    0.000000   0.000000   0.000000   0.000000   0.000000   0.000000
    12  H    0.000000   0.000000   0.000000   0.000000   0.000000   0.000000
    13  H    0.000000   0.000000   0.000000   0.000000   0.000000   0.000000
    14  C    0.000000   0.000000   0.000000   0.000000   0.000000   0.000000
    15  H    0.000000   0.000000   0.000000   0.000000   0.000000   0.000000
    16  H    0.000000   0.000000   0.000000   0.000000   0.000000   0.000000
    17  C    0.000000   0.000000   0.000000   0.000000   0.000000   0.000000
    18  H    0.000000   0.000000   0.000000   0.000000   0.000000   0.000000
    19  H    0.000000   0.000000   0.000000   0.000000   0.000000   0.000000
    20  C    0.000000   0.000000   0.000000   0.000000   0.000000   0.000000
    21  H    0.000000   0.000000   0.000000   0.000000   0.000000   0.000000
    22  C    0.000000   0.000000   0.000000   0.000000   0.000000   0.000000
    23  H    0.000000   0.000000   0.000000   0.000000   0.000000   0.000000
    24  H    0.000000   0.000000   0.000000   0.000000   0.000000   0.000000
    25  H    0.000000   0.000000   0.000000   0.000000   0.000000   0.000000
    26  C    0.000000   0.000000   0.000000   0.000000   0.000000   0.000000
    27  H    0.000000   0.000000   0.000000   0.000000   0.000000   0.000000
    28  H    0.000000   0.000000   0.000000   0.000000   0.000000   0.000000
    29  C    0.000000   0.000000   0.000000   0.000000   0.000000   0.000000
    30  H    0.000000   0.000000   0.000000   0.000000   0.000000   0.000000
    31  H    0.000000   0.000000   0.000000   0.000000   0.000000   0.000000
    32  H    0.000000   0.000000   0.000000   0.000000   0.000000   0.000000
    33  C    0.000000   0.000000   0.000000   0.000000   0.000000   0.000000
    34  H    0.000000   0.000000   0.000000   0.000000   0.000000   0.000000
    35  H    0.000000   0.000000   0.000000   0.000000   0.000000   0.000000
    36  H    0.000000   0.000000   0.000000   0.000000   0.000000   0.000000
    37  C    0.000000   0.000000   0.000000   0.000000   0.000000   0.000000
    38  H    0.000000   0.000000   0.000000   0.000000   0.000000   0.000000
    39  H    0.000000   0.000000   0.000000   0.000000   0.000000   0.000000
    40  H    0.000000   0.000000   0.000000   0.000000   0.000000   0.000000
               7          8          9         10         11         12
     1  C    0.000000   0.000000   0.000000   0.000000   0.000000   0.000000
     2  C    0.000000   0.000000   0.000000   0.000000   0.000000   0.000000
     3  C    0.000000   0.000000   0.000000   0.000000   0.000000   0.000000
     4  C    0.000000   0.000000   0.000000   0.000000   0.000000   0.000000
     5  C    0.000000   0.000000   0.000000   0.000000   0.000000   0.000000
     6  C    0.000000   0.000000   0.000000   0.000000   0.000000   0.000000
     7  C    4.111452   0.000000   0.000000   0.000000   0.000000   0.000000
     8  H    0.000000   0.813955   0.000000   0.000000   0.000000   0.000000
     9  H    0.000000   0.000000   0.863881   0.000000   0.000000   0.000000
    10  H    0.000000   0.000000   0.000000   0.794731   0.000000   0.000000
    11  H    0.000000   0.000000   0.000000   0.000000   0.810994   0.000000
    12  H    0.000000   0.000000   0.000000   0.000000   0.000000   0.812203
    13  H    0.000000   0.000000   0.000000   0.000000   0.000000   0.000000
    14  C    0.000000   0.000000   0.000000   0.000000   0.000000   0.000000
    15  H    0.000000   0.000000   0.000000   0.000000   0.000000   0.000000
    16  H    0.000000   0.000000   0.000000   0.000000   0.000000   0.000000
    17  C    0.000000   0.000000   0.000000   0.000000   0.000000   0.000000
    18  H    0.000000   0.000000   0.000000   0.000000   0.000000   0.000000
    19  H    0.000000   0.000000   0.000000   0.000000   0.000000   0.000000
    20  C    0.000000   0.000000   0.000000   0.000000   0.000000   0.000000
    21  H    0.000000   0.000000   0.000000   0.000000   0.000000   0.000000
    22  C    0.000000   0.000000   0.000000   0.000000   0.000000   0.000000
    23  H    0.000000   0.000000   0.000000   0.000000   0.000000   0.000000
    24  H    0.000000   0.000000   0.000000   0.000000   0.000000   0.000000
    25  H    0.000000   0.000000   0.000000   0.000000   0.000000   0.000000
    26  C    0.000000   0.000000   0.000000   0.000000   0.000000   0.000000
    27  H    0.000000   0.000000   0.000000   0.000000   0.000000   0.000000
    28  H    0.000000   0.000000   0.000000   0.000000   0.000000   0.000000
    29  C    0.000000   0.000000   0.000000   0.000000   0.000000   0.000000
    30  H    0.000000   0.000000   0.000000   0.000000   0.000000   0.000000
    31  H    0.000000   0.000000   0.000000   0.000000   0.000000   0.000000
    32  H    0.000000   0.000000   0.000000   0.000000   0.000000   0.000000
    33  C    0.000000   0.000000   0.000000   0.000000   0.000000   0.000000
    34  H    0.000000   0.000000   0.000000   0.000000   0.000000   0.000000
    35  H    0.000000   0.000000   0.000000   0.000000   0.000000   0.000000
    36  H    0.000000   0.000000   0.000000   0.000000   0.000000   0.000000
    37  C    0.000000   0.000000   0.000000   0.000000   0.000000   0.000000
    38  H    0.000000   0.000000   0.000000   0.000000   0.000000   0.000000
    39  H    0.000000   0.000000   0.000000   0.000000   0.000000   0.000000
    40  H    0.000000   0.000000   0.000000   0.000000   0.000000   0.000000
              13         14         15         16         17         18
     1  C    0.000000   0.000000   0.000000   0.000000   0.000000   0.000000
     2  C    0.000000   0.000000   0.000000   0.000000   0.000000   0.000000
     3  C    0.000000   0.000000   0.000000   0.000000   0.000000   0.000000
     4  C    0.000000   0.000000   0.000000   0.000000   0.000000   0.000000
     5  C    0.000000   0.000000   0.000000   0.000000   0.000000   0.000000
     6  C    0.000000   0.000000   0.000000   0.000000   0.000000   0.000000
     7  C    0.000000   0.000000   0.000000   0.000000   0.000000   0.000000
     8  H    0.000000   0.000000   0.000000   0.000000   0.000000   0.000000
     9  H    0.000000   0.000000   0.000000   0.000000   0.000000   0.000000
    10  H    0.000000   0.000000   0.000000   0.000000   0.000000   0.000000
    11  H    0.000000   0.000000   0.000000   0.000000   0.000000   0.000000
    12  H    0.000000   0.000000   0.000000   0.000000   0.000000   0.000000
    13  H    0.743755   0.000000   0.000000   0.000000   0.000000   0.000000
    14  C    0.000000   4.332783   0.000000   0.000000   0.000000   0.000000
    15  H    0.000000   0.000000   0.806206   0.000000   0.000000   0.000000
    16  H    0.000000   0.000000   0.000000   0.791691   0.000000   0.000000
    17  C    0.000000   0.000000   0.000000   0.000000   4.293683   0.000000
    18  H    0.000000   0.000000   0.000000   0.000000   0.000000   0.813495
    19  H    0.000000   0.000000   0.000000   0.000000   0.000000   0.000000
    20  C    0.000000   0.000000   0.000000   0.000000   0.000000   0.000000
    21  H    0.000000   0.000000   0.000000   0.000000   0.000000   0.000000
    22  C    0.000000   0.000000   0.000000   0.000000   0.000000   0.000000
    23  H    0.000000   0.000000   0.000000   0.000000   0.000000   0.000000
    24  H    0.000000   0.000000   0.000000   0.000000   0.000000   0.000000
    25  H    0.000000   0.000000   0.000000   0.000000   0.000000   0.000000
    26  C    0.000000   0.000000   0.000000   0.000000   0.000000   0.000000
    27  H    0.000000   0.000000   0.000000   0.000000   0.000000   0.000000
    28  H    0.000000   0.000000   0.000000   0.000000   0.000000   0.000000
    29  C    0.000000   0.000000   0.000000   0.000000   0.000000   0.000000
    30  H    0.000000   0.000000   0.000000   0.000000   0.000000   0.000000
    31  H    0.000000   0.000000   0.000000   0.000000   0.000000   0.000000
    32  H    0.000000   0.000000   0.000000   0.000000   0.000000   0.000000
    33  C    0.000000   0.000000   0.000000   0.000000   0.000000   0.000000
    34  H    0.000000   0.000000   0.000000   0.000000   0.000000   0.000000
    35  H    0.000000   0.000000   0.000000   0.000000   0.000000   0.000000
    36  H    0.000000   0.000000   0.000000   0.000000   0.000000   0.000000
    37  C    0.000000   0.000000   0.000000   0.000000   0.000000   0.000000
    38  H    0.000000   0.000000   0.000000   0.000000   0.000000   0.000000
    39  H    0.000000   0.000000   0.000000   0.000000   0.000000   0.000000
    40  H    0.000000   0.000000   0.000000   0.000000   0.000000   0.000000
              19         20         21         22         23         24
     1  C    0.000000   0.000000   0.000000   0.000000   0.000000   0.000000
     2  C    0.000000   0.000000   0.000000   0.000000   0.000000   0.000000
     3  C    0.000000   0.000000   0.000000   0.000000   0.000000   0.000000
     4  C    0.000000   0.000000   0.000000   0.000000   0.000000   0.000000
     5  C    0.000000   0.000000   0.000000   0.000000   0.000000   0.000000
     6  C    0.000000   0.000000   0.000000   0.000000   0.000000   0.000000
     7  C    0.000000   0.000000   0.000000   0.000000   0.000000   0.000000
     8  H    0.000000   0.000000   0.000000   0.000000   0.000000   0.000000
     9  H    0.000000   0.000000   0.000000   0.000000   0.000000   0.000000
    10  H    0.000000   0.000000   0.000000   0.000000   0.000000   0.000000
    11  H    0.000000   0.000000   0.000000   0.000000   0.000000   0.000000
    12  H    0.000000   0.000000   0.000000   0.000000   0.000000   0.000000
    13  H    0.000000   0.000000   0.000000   0.000000   0.000000   0.000000
    14  C    0.000000   0.000000   0.000000   0.000000   0.000000   0.000000
    15  H    0.000000   0.000000   0.000000   0.000000   0.000000   0.000000
    16  H    0.000000   0.000000   0.000000   0.000000   0.000000   0.000000
    17  C    0.000000   0.000000   0.000000   0.000000   0.000000   0.000000
    18  H    0.000000   0.000000   0.000000   0.000000   0.000000   0.000000
    19  H    0.834494   0.000000   0.000000   0.000000   0.000000   0.000000
    20  C    0.000000   4.115512   0.000000   0.000000   0.000000   0.000000
    21  H    0.000000   0.000000   0.827831   0.000000   0.000000   0.000000
    22  C    0.000000   0.000000   0.000000   4.442831   0.000000   0.000000
    23  H    0.000000   0.000000   0.000000   0.000000   0.819490   0.000000
    24  H    0.000000   0.000000   0.000000   0.000000   0.000000   0.836777
    25  H    0.000000   0.000000   0.000000   0.000000   0.000000   0.000000
    26  C    0.000000   0.000000   0.000000   0.000000   0.000000   0.000000
    27  H    0.000000   0.000000   0.000000   0.000000   0.000000   0.000000
    28  H    0.000000   0.000000   0.000000   0.000000   0.000000   0.000000
    29  C    0.000000   0.000000   0.000000   0.000000   0.000000   0.000000
    30  H    0.000000   0.000000   0.000000   0.000000   0.000000   0.000000
    31  H    0.000000   0.000000   0.000000   0.000000   0.000000   0.000000
    32  H    0.000000   0.000000   0.000000   0.000000   0.000000   0.000000
    33  C    0.000000   0.000000   0.000000   0.000000   0.000000   0.000000
    34  H    0.000000   0.000000   0.000000   0.000000   0.000000   0.000000
    35  H    0.000000   0.000000   0.000000   0.000000   0.000000   0.000000
    36  H    0.000000   0.000000   0.000000   0.000000   0.000000   0.000000
    37  C    0.000000   0.000000   0.000000   0.000000   0.000000   0.000000
    38  H    0.000000   0.000000   0.000000   0.000000   0.000000   0.000000
    39  H    0.000000   0.000000   0.000000   0.000000   0.000000   0.000000
    40  H    0.000000   0.000000   0.000000   0.000000   0.000000   0.000000
              25         26         27         28         29         30
     1  C    0.000000   0.000000   0.000000   0.000000   0.000000   0.000000
     2  C    0.000000   0.000000   0.000000   0.000000   0.000000   0.000000
     3  C    0.000000   0.000000   0.000000   0.000000   0.000000   0.000000
     4  C    0.000000   0.000000   0.000000   0.000000   0.000000   0.000000
     5  C    0.000000   0.000000   0.000000   0.000000   0.000000   0.000000
     6  C    0.000000   0.000000   0.000000   0.000000   0.000000   0.000000
     7  C    0.000000   0.000000   0.000000   0.000000   0.000000   0.000000
     8  H    0.000000   0.000000   0.000000   0.000000   0.000000   0.000000
     9  H    0.000000   0.000000   0.000000   0.000000   0.000000   0.000000
    10  H    0.000000   0.000000   0.000000   0.000000   0.000000   0.000000
    11  H    0.000000   0.000000   0.000000   0.000000   0.000000   0.000000
    12  H    0.000000   0.000000   0.000000   0.000000   0.000000   0.000000
    13  H    0.000000   0.000000   0.000000   0.000000   0.000000   0.000000
    14  C    0.000000   0.000000   0.000000   0.000000   0.000000   0.000000
    15  H    0.000000   0.000000   0.000000   0.000000   0.000000   0.000000
    16  H    0.000000   0.000000   0.000000   0.000000   0.000000   0.000000
    17  C    0.000000   0.000000   0.000000   0.000000   0.000000   0.000000
    18  H    0.000000   0.000000   0.000000   0.000000   0.000000   0.000000
    19  H    0.000000   0.000000   0.000000   0.000000   0.000000   0.000000
    20  C    0.000000   0.000000   0.000000   0.000000   0.000000   0.000000
    21  H    0.000000   0.000000   0.000000   0.000000   0.000000   0.000000
    22  C    0.000000   0.000000   0.000000   0.000000   0.000000   0.000000
    23  H    0.000000   0.000000   0.000000   0.000000   0.000000   0.000000
    24  H    0.000000   0.000000   0.000000   0.000000   0.000000   0.000000
    25  H    0.839094   0.000000   0.000000   0.000000   0.000000   0.000000
    26  C    0.000000   4.316299   0.000000   0.000000   0.000000   0.000000
    27  H    0.000000   0.000000   0.803586   0.000000   0.000000   0.000000
    28  H    0.000000   0.000000   0.000000   0.836215   0.000000   0.000000
    29  C    0.000000   0.000000   0.000000   0.000000   4.469164   0.000000
    30  H    0.000000   0.000000   0.000000   0.000000   0.000000   0.854268
    31  H    0.000000   0.000000   0.000000   0.000000   0.000000   0.000000
    32  H    0.000000   0.000000   0.000000   0.000000   0.000000   0.000000
    33  C    0.000000   0.000000   0.000000   0.000000   0.000000   0.000000
    34  H    0.000000   0.000000   0.000000   0.000000   0.000000   0.000000
    35  H    0.000000   0.000000   0.000000   0.000000   0.000000   0.000000
    36  H    0.000000   0.000000   0.000000   0.000000   0.000000   0.000000
    37  C    0.000000   0.000000   0.000000   0.000000   0.000000   0.000000
    38  H    0.000000   0.000000   0.000000   0.000000   0.000000   0.000000
    39  H    0.000000   0.000000   0.000000   0.000000   0.000000   0.000000
    40  H    0.000000   0.000000   0.000000   0.000000   0.000000   0.000000
              31         32         33         34         35         36
     1  C    0.000000   0.000000   0.000000   0.000000   0.000000   0.000000
     2  C    0.000000   0.000000   0.000000   0.000000   0.000000   0.000000
     3  C    0.000000   0.000000   0.000000   0.000000   0.000000   0.000000
     4  C    0.000000   0.000000   0.000000   0.000000   0.000000   0.000000
     5  C    0.000000   0.000000   0.000000   0.000000   0.000000   0.000000
     6  C    0.000000   0.000000   0.000000   0.000000   0.000000   0.000000
     7  C    0.000000   0.000000   0.000000   0.000000   0.000000   0.000000
     8  H    0.000000   0.000000   0.000000   0.000000   0.000000   0.000000
     9  H    0.000000   0.000000   0.000000   0.000000   0.000000   0.000000
    10  H    0.000000   0.000000   0.000000   0.000000   0.000000   0.000000
    11  H    0.000000   0.000000   0.000000   0.000000   0.000000   0.000000
    12  H    0.000000   0.000000   0.000000   0.000000   0.000000   0.000000
    13  H    0.000000   0.000000   0.000000   0.000000   0.000000   0.000000
    14  C    0.000000   0.000000   0.000000   0.000000   0.000000   0.000000
    15  H    0.000000   0.000000   0.000000   0.000000   0.000000   0.000000
    16  H    0.000000   0.000000   0.000000   0.000000   0.000000   0.000000
    17  C    0.000000   0.000000   0.000000   0.000000   0.000000   0.000000
    18  H    0.000000   0.000000   0.000000   0.000000   0.000000   0.000000
    19  H    0.000000   0.000000   0.000000   0.000000   0.000000   0.000000
    20  C    0.000000   0.000000   0.000000   0.000000   0.000000   0.000000
    21  H    0.000000   0.000000   0.000000   0.000000   0.000000   0.000000
    22  C    0.000000   0.000000   0.000000   0.000000   0.000000   0.000000
    23  H    0.000000   0.000000   0.000000   0.000000   0.000000   0.000000
    24  H    0.000000   0.000000   0.000000   0.000000   0.000000   0.000000
    25  H    0.000000   0.000000   0.000000   0.000000   0.000000   0.000000
    26  C    0.000000   0.000000   0.000000   0.000000   0.000000   0.000000
    27  H    0.000000   0.000000   0.000000   0.000000   0.000000   0.000000
    28  H    0.000000   0.000000   0.000000   0.000000   0.000000   0.000000
    29  C    0.000000   0.000000   0.000000   0.000000   0.000000   0.000000
    30  H    0.000000   0.000000   0.000000   0.000000   0.000000   0.000000
    31  H    0.836545   0.000000   0.000000   0.000000   0.000000   0.000000
    32  H    0.000000   0.831596   0.000000   0.000000   0.000000   0.000000
    33  C    0.000000   0.000000   4.468296   0.000000   0.000000   0.000000
    34  H    0.000000   0.000000   0.000000   0.845677   0.000000   0.000000
    35  H    0.000000   0.000000   0.000000   0.000000   0.829568   0.000000
    36  H    0.000000   0.000000   0.000000   0.000000   0.000000   0.837636
    37  C    0.000000   0.000000   0.000000   0.000000   0.000000   0.000000
    38  H    0.000000   0.000000   0.000000   0.000000   0.000000   0.000000
    39  H    0.000000   0.000000   0.000000   0.000000   0.000000   0.000000
    40  H    0.000000   0.000000   0.000000   0.000000   0.000000   0.000000
              37         38         39         40
     1  C    0.000000   0.000000   0.000000   0.000000
     2  C    0.000000   0.000000   0.000000   0.000000
     3  C    0.000000   0.000000   0.000000   0.000000
     4  C    0.000000   0.000000   0.000000   0.000000
     5  C    0.000000   0.000000   0.000000   0.000000
     6  C    0.000000   0.000000   0.000000   0.000000
     7  C    0.000000   0.000000   0.000000   0.000000
     8  H    0.000000   0.000000   0.000000   0.000000
     9  H    0.000000   0.000000   0.000000   0.000000
    10  H    0.000000   0.000000   0.000000   0.000000
    11  H    0.000000   0.000000   0.000000   0.000000
    12  H    0.000000   0.000000   0.000000   0.000000
    13  H    0.000000   0.000000   0.000000   0.000000
    14  C    0.000000   0.000000   0.000000   0.000000
    15  H    0.000000   0.000000   0.000000   0.000000
    16  H    0.000000   0.000000   0.000000   0.000000
    17  C    0.000000   0.000000   0.000000   0.000000
    18  H    0.000000   0.000000   0.000000   0.000000
    19  H    0.000000   0.000000   0.000000   0.000000
    20  C    0.000000   0.000000   0.000000   0.000000
    21  H    0.000000   0.000000   0.000000   0.000000
    22  C    0.000000   0.000000   0.000000   0.000000
    23  H    0.000000   0.000000   0.000000   0.000000
    24  H    0.000000   0.000000   0.000000   0.000000
    25  H    0.000000   0.000000   0.000000   0.000000
    26  C    0.000000   0.000000   0.000000   0.000000
    27  H    0.000000   0.000000   0.000000   0.000000
    28  H    0.000000   0.000000   0.000000   0.000000
    29  C    0.000000   0.000000   0.000000   0.000000
    30  H    0.000000   0.000000   0.000000   0.000000
    31  H    0.000000   0.000000   0.000000   0.000000
    32  H    0.000000   0.000000   0.000000   0.000000
    33  C    0.000000   0.000000   0.000000   0.000000
    34  H    0.000000   0.000000   0.000000   0.000000
    35  H    0.000000   0.000000   0.000000   0.000000
    36  H    0.000000   0.000000   0.000000   0.000000
    37  C    4.423276   0.000000   0.000000   0.000000
    38  H    0.000000   0.830198   0.000000   0.000000
    39  H    0.000000   0.000000   0.836808   0.000000
    40  H    0.000000   0.000000   0.000000   0.815517
 Mulliken charges:
               1
     1  C   -0.357850
     2  C    0.117002
     3  C   -0.326346
     4  C    0.029316
     5  C   -0.119262
     6  C    0.196645
     7  C   -0.111452
     8  H    0.186045
     9  H    0.136119
    10  H    0.205269
    11  H    0.189006
    12  H    0.187797
    13  H    0.256245
    14  C   -0.332783
    15  H    0.193794
    16  H    0.208309
    17  C   -0.293683
    18  H    0.186505
    19  H    0.165506
    20  C   -0.115512
    21  H    0.172169
    22  C   -0.442831
    23  H    0.180510
    24  H    0.163223
    25  H    0.160906
    26  C   -0.316299
    27  H    0.196414
    28  H    0.163785
    29  C   -0.469164
    30  H    0.145732
    31  H    0.163455
    32  H    0.168404
    33  C   -0.468296
    34  H    0.154323
    35  H    0.170432
    36  H    0.162364
    37  C   -0.423276
    38  H    0.169802
    39  H    0.163192
    40  H    0.184483
 Sum of Mulliken charges =   1.00000
 Mulliken charges with hydrogens summed into heavy atoms:
               1
     1  C    0.033463
     2  C    0.117002
     3  C   -0.001221
     4  C    0.285562
     5  C    0.068535
     6  C    0.196645
     7  C   -0.111452
    14  C    0.069320
    17  C    0.058329
    20  C    0.056657
    22  C    0.061808
    26  C    0.043900
    29  C    0.008428
    33  C    0.018823
    37  C    0.094201
 Charge=              1.0000 electrons
 Dipole moment (field-independent basis, Debye):
    X=              2.7830    Y=              0.1715    Z=              1.5472  Tot=              3.1888
 N-N= 6.294698001268D+02 E-N=-1.066929933061D+03  KE=-1.266347789480D+02
  Exact polarizability:       0.000       0.000       0.000       0.000       0.000       0.000
 Approx polarizability:      71.595       2.257      81.770      -2.493      -0.067      66.869
 Leave Link  601 at Thu Mar 27 17:19:36 2025, MaxMem=  8053063680 cpu:               0.0 elap:               0.0
 (Enter /home/apps/g16_C02_zen2/g16/l701.exe)
 ... and contract with generalized density number  0.
 Compute integral first derivatives.
 R6Disp: Adding PM7 dispersion energy 1st derivatives to the gradient.
 Leave Link  701 at Thu Mar 27 17:19:36 2025, MaxMem=  8053063680 cpu:               0.1 elap:               0.0
 (Enter /home/apps/g16_C02_zen2/g16/l702.exe)
 L702 exits ... SP integral derivatives will be done elsewhere.
 Leave Link  702 at Thu Mar 27 17:19:36 2025, MaxMem=  8053063680 cpu:               0.0 elap:               0.0
 (Enter /home/apps/g16_C02_zen2/g16/l703.exe)
 Integral derivatives from FoFJK, PRISM(SPDF).
 Compute integral first derivatives, UseDBF=F ICtDFT=           0.
 Calling FoFJK, ICntrl=      2127 FMM=F ISym2X=0 I1Cent= 0 IOpClX= 0 NMat=1 NMatS=1 NMatT=0.
 FoFJK:  IHMeth=43 ICntrl=    2127 DoSepK=F KAlg= 0 I1Cent=           0 FoldK=F
 IRaf=         0 NMat=       1 IRICut=       1 DoRegI=T DoRafI=F ISym2E= 0 IDoP0=3 IntGTp=3.
 FoFCou: FMM=F IPFlag=           0 FMFlag=      100000 FMFlg1=         800
         NFxFlg=           0 DoJE=F BraDBF=F KetDBF=F FulRan=T
         wScrn=  0.000000 ICntrl=      2127 IOpCl=  0 I1Cent=           0 NGrid=           0
         NMat0=    1 NMatS0=      1 NMatT0=    0 NMatD0=    1 NMtDS0=    0 NMtDT0=    0
 Symmetry not used in FoFCou.
 Leave Link  703 at Thu Mar 27 17:19:36 2025, MaxMem=  8053063680 cpu:               0.0 elap:               0.0
 (Enter /home/apps/g16_C02_zen2/g16/l716.exe)
 Dipole        = 1.09492456D+00 6.74708781D-02 6.08722827D-01
 Polarizability= 0.00000000D+00 0.00000000D+00 0.00000000D+00
                 0.00000000D+00 0.00000000D+00 0.00000000D+00
 -------------------------------------------------------------------
 Center     Atomic                   Forces (Hartrees/Bohr)
 Number     Number              X              Y              Z
 -------------------------------------------------------------------
      1        6          -0.000530996   -0.000798835   -0.001175384
      2        6           0.000186096   -0.000149499   -0.000048817
      3        6          -0.000056239    0.000010935    0.000009284
      4        6          -0.001290995    0.003268917    0.008867023
      5        6          -0.000065003    0.000021998    0.000224671
      6        6           0.002242442    0.002436126   -0.008531778
      7        6           0.000273092   -0.000247667    0.000445488
      8        1          -0.000023734   -0.000052537   -0.000091634
      9        1          -0.000000055   -0.000022222   -0.000006947
     10        1           0.000104041    0.000158431   -0.000103532
     11        1          -0.000001529   -0.000015389   -0.000010726
     12        1           0.000020373   -0.000018865   -0.000031118
     13        1          -0.000413861   -0.004880942    0.000610114
     14        6          -0.000648095   -0.000064595    0.000272066
     15        1          -0.000049515    0.000047160    0.000018485
     16        1           0.000200152    0.000101937    0.000048534
     17        6           0.000036469    0.000097382   -0.000041494
     18        1          -0.000003566    0.000008484   -0.000000963
     19        1          -0.000014565    0.000008232    0.000002388
     20        6           0.000215815   -0.000139791   -0.000544638
     21        1           0.000028553   -0.000013675   -0.000046269
     22        6           0.000101462    0.000148290    0.000003479
     23        1          -0.000021458   -0.000039736   -0.000026663
     24        1          -0.000056341    0.000047562    0.000020184
     25        1          -0.000065624   -0.000020983    0.000008134
     26        6          -0.000086581   -0.000176898    0.000242912
     27        1           0.000052155    0.000000712   -0.000007854
     28        1           0.000013104   -0.000045362    0.000035679
     29        6          -0.000137132    0.000143014   -0.000045648
     30        1           0.000009389   -0.000042965   -0.000009569
     31        1           0.000010327   -0.000010848    0.000017654
     32        1          -0.000014875   -0.000014497   -0.000006955
     33        6          -0.000149893    0.000064794   -0.000014668
     34        1           0.000019997   -0.000003444   -0.000005486
     35        1          -0.000004344   -0.000004717   -0.000003060
     36        1           0.000024308    0.000005309    0.000003711
     37        6           0.000221227    0.000118439   -0.000019795
     38        1          -0.000025180    0.000065247   -0.000034165
     39        1          -0.000060417    0.000029239   -0.000050900
     40        1          -0.000039004   -0.000018742    0.000028258
 -------------------------------------------------------------------
 Cartesian Forces:  Max     0.008867023 RMS     0.001301119
 Leave Link  716 at Thu Mar 27 17:19:36 2025, MaxMem=  8053063680 cpu:               0.0 elap:               0.0
 (Enter /home/apps/g16_C02_zen2/g16/l123.exe)
 IRC-IRC-IRC-IRC-IRC-IRC-IRC-IRC-IRC-IRC-IRC-IRC-IRC-IRC-IRC-IRC-IRC-IRC
 Pt  1 Step number   1 out of a maximum of  30
 Point Number:   1          Path Number:   1
                    CURRENT STRUCTURE
                Cartesian Coordinates (Ang):                
 ---------------------------------------------------------------------
 Center     Atomic                     Coordinates (Angstroms)
 Number     Number                        X           Y           Z
 ---------------------------------------------------------------------
      1          6                   -0.433251   -1.615119    0.161315
      2          6                   -1.847932   -1.000477   -0.013807
      3          6                   -2.040330    0.254280    0.866149
      4          6                    0.732885   -0.713621    0.321912
      5          6                   -1.581004    1.514821    0.183708
      6          6                    0.884706    0.682953    0.153572
      7          6                   -0.115294    1.696777   -0.209487
      8          1                   -0.455731   -2.331696    1.020139
      9          1                   -1.571703    0.111955    1.856063
     10          1                   -0.250981   -2.285379   -0.720651
     11          1                   -3.126306    0.364987    1.107946
     12          1                   -2.333759    1.893924   -0.530004
     13          1                    0.544899    0.047463    1.488961
     14          6                    2.337257    1.070894    0.215256
     15          1                    2.532455    1.943206    0.870893
     16          1                    2.682782    1.404560   -0.792863
     17          6                    3.087843   -0.193436    0.664670
     18          1                    4.031196   -0.328700    0.100437
     19          1                    3.400407   -0.125742    1.723018
     20          6                    2.114265   -1.375233    0.439072
     21          1                    2.145640   -2.081099    1.304026
     22          6                    2.443837   -2.138224   -0.838442
     23          1                    3.476025   -2.524947   -0.812093
     24          1                    1.795563   -3.012711   -0.984379
     25          1                    2.363172   -1.510415   -1.735005
     26          6                   -0.735728    2.530536    0.903575
     27          1                   -0.909028    3.597050    0.731044
     28          1                   -0.446177    2.386103    1.939806
     29          6                   -2.087962   -0.694928   -1.495590
     30          1                   -1.312243   -0.051642   -1.921767
     31          1                   -2.116834   -1.612234   -2.099184
     32          1                   -3.053333   -0.193335   -1.649678
     33          6                   -2.864885   -2.063356    0.437117
     34          1                   -2.801766   -2.273980    1.510445
     35          1                   -3.895576   -1.739699    0.232970
     36          1                   -2.729568   -3.012604   -0.096459
     37          6                    0.205087    2.355490   -1.526999
     38          1                    1.070474    3.031070   -1.453468
     39          1                    0.410373    1.623304   -2.320997
     40          1                   -0.634668    2.973270   -1.889021
 ---------------------------------------------------------------------
   CHANGE IN THE REACTION COORDINATE =    0.18576
   NET REACTION COORDINATE UP TO THIS POINT =    0.18576
  # OF POINTS ALONG THE PATH =   1
  # OF STEPS =   1

 Calculating another point on the path.
 Point Number  2 in FORWARD path direction.
 Using LQA Reaction Path Following.
   LQA: T_Est iteration completed in    3 iterations.
 IRC-IRC-IRC-IRC-IRC-IRC-IRC-IRC-IRC-IRC-IRC-IRC-IRC-IRC-IRC-IRC-IRC-IRC
 Leave Link  123 at Thu Mar 27 17:19:36 2025, MaxMem=  8053063680 cpu:               0.1 elap:               0.0
 (Enter /home/apps/g16_C02_zen2/g16/l202.exe)
                          Input orientation:                          
 ---------------------------------------------------------------------
 Center     Atomic      Atomic             Coordinates (Angstroms)
 Number     Number       Type             X           Y           Z
 ---------------------------------------------------------------------
      1          6           0       -0.433961   -1.616177    0.159843
      2          6           0       -1.847687   -1.000669   -0.013879
      3          6           0       -2.040405    0.254299    0.866148
      4          6           0        0.731253   -0.708908    0.333444
      5          6           0       -1.581074    1.514846    0.183990
      6          6           0        0.887606    0.685702    0.142447
      7          6           0       -0.114989    1.696471   -0.208823
      8          1           0       -0.456226   -2.332445    1.018497
      9          1           0       -1.571740    0.111592    1.856004
     10          1           0       -0.249381   -2.282727   -0.722266
     11          1           0       -3.126393    0.364749    1.107792
     12          1           0       -2.333483    1.893622   -0.530525
     13          1           0        0.538247   -0.028721    1.497463
     14          6           0        2.336444    1.070841    0.215650
     15          1           0        2.531819    1.943858    0.871087
     16          1           0        2.685776    1.406059   -0.792176
     17          6           0        3.087889   -0.193313    0.664607
     18          1           0        4.031237   -0.328598    0.100422
     19          1           0        3.400253   -0.125627    1.723012
     20          6           0        2.114581   -1.375447    0.438401
     21          1           0        2.146264   -2.081338    1.303263
     22          6           0        2.444014   -2.138047   -0.838434
     23          1           0        3.475666   -2.525546   -0.812495
     24          1           0        1.794744   -3.011980   -0.984083
     25          1           0        2.362170   -1.510741   -1.734882
     26          6           0       -0.735835    2.530286    0.903867
     27          1           0       -0.908252    3.597106    0.730938
     28          1           0       -0.446001    2.385469    1.940188
     29          6           0       -2.088162   -0.694719   -1.495638
     30          1           0       -1.312090   -0.052283   -1.921900
     31          1           0       -2.116716   -1.612401   -2.098895
     32          1           0       -3.053559   -0.193571   -1.649770
     33          6           0       -2.865105   -2.063275    0.437100
     34          1           0       -2.801490   -2.274064    1.510344
     35          1           0       -3.895651   -1.739781    0.232913
     36          1           0       -2.729219   -3.012549   -0.096410
     37          6           0        0.205356    2.355661   -1.527030
     38          1           0        1.070078    3.032126   -1.454019
     39          1           0        0.409439    1.623752   -2.321843
     40          1           0       -0.635269    2.972998   -1.888569
 ---------------------------------------------------------------------
                    Distance matrix (angstroms):
                    1          2          3          4          5
     1  C    0.000000
     2  C    1.551661   0.000000
     3  C    2.564802   1.544841   0.000000
     4  C    1.486942   2.618528   2.982219   0.000000
     5  C    3.334629   2.537331   1.505091   3.211584   0.000000
     6  C    2.654334   3.217159   3.046818   1.416285   2.604532
     7  C    3.348327   3.211668   2.634891   2.606919   1.528625
     8  H    1.118402   2.185313   3.037117   2.124918   4.094305
     9  H    2.675199   2.193111   1.104459   2.880137   2.182851
    10  H    1.120926   2.167964   3.488170   2.133793   4.125077
    11  H    3.474459   2.181192   1.118016   4.078454   2.136386
    12  H    4.050121   2.979906   2.173469   4.112446   1.104592
    13  H    2.292254   2.986891   2.669851   1.361928   2.932461
    14  C    3.859835   4.674483   4.499633   2.399588   3.942727
    15  H    4.687810   5.351025   4.874409   3.250886   4.191902
    16  H    4.446685   5.191375   5.139394   3.091968   4.378440
    17  C    3.831808   5.046987   5.151735   2.435003   4.994799
    18  H    4.647513   5.918318   6.147434   3.329989   5.907902
    19  H    4.400731   5.596728   5.520808   3.065074   5.465653
    20  C    2.574997   4.005569   4.483631   1.539119   4.698551
    21  H    2.860305   4.342160   4.813987   2.196900   5.298901
    22  C    3.090573   4.515774   5.360871   2.519779   5.530850
    23  H    4.130081   5.594740   6.400970   3.484989   6.548920
    24  H    2.867745   4.272467   5.366591   2.858501   5.766514
    25  H    3.379267   4.576562   5.409564   2.753324   5.327796
    26  C    4.223488   3.813937   2.623631   3.601404   1.504583
    27  H    5.265873   4.751507   3.531912   4.624687   2.255582
    28  H    4.379833   4.153195   2.870117   3.680044   2.265084
    29  C    2.515172   1.532007   2.545771   3.360781   2.821429
    30  H    2.747823   2.197008   2.897869   3.113356   2.638754
    31  H    2.816661   2.189494   3.504550   3.852727   3.908727
    32  H    3.487234   2.186704   2.748984   4.303895   2.906815
    33  C    2.487415   1.538718   2.497071   3.844327   3.809954
    34  H    2.803901   2.203301   2.717878   4.039194   4.195768
    35  H    3.464667   2.191198   2.796297   4.741419   3.994027
    36  H    2.698839   2.198083   3.474662   4.179283   4.679120
    37  C    4.362311   4.215395   3.896981   3.623467   2.612641
    38  H    5.145231   5.181774   4.772274   4.159947   3.466095
    39  H    4.167400   4.160396   4.247401   3.549001   3.202062
    40  H    5.029616   4.557899   4.117547   4.512334   2.704858
[...]
    24  H    0.000000   0.000000   0.000000   0.000000   0.000000   0.000000
    25  H    0.000000   0.000000   0.000000   0.000000   0.000000   0.000000
    26  C    0.000000   0.000000   0.000000   0.000000   0.000000   0.000000
    27  H    0.000000   0.000000   0.000000   0.000000   0.000000   0.000000
    28  H    0.000000   0.000000   0.000000   0.000000   0.000000   0.000000
    29  C    0.000000   0.000000   0.000000   0.000000   0.000000   0.000000
    30  H    0.000000   0.000000   0.000000   0.000000   0.000000   0.000000
    31  H    0.000000   0.000000   0.000000   0.000000   0.000000   0.000000
    32  H    0.000000   0.000000   0.000000   0.000000   0.000000   0.000000
    33  C    0.000000   0.000000   0.000000   0.000000   0.000000   0.000000
    34  H    0.000000   0.000000   0.000000   0.000000   0.000000   0.000000
    35  H    0.000000   0.000000   0.000000   0.000000   0.000000   0.000000
    36  H    0.000000   0.000000   0.000000   0.000000   0.000000   0.000000
    37  C    0.000000   0.000000   0.000000   0.000000   0.000000   0.000000
    38  H    0.000000   0.000000   0.000000   0.000000   0.000000   0.000000
    39  H    0.000000   0.000000   0.000000   0.000000   0.000000   0.000000
    40  H    0.000000   0.000000   0.000000   0.000000   0.000000   0.000000
              13         14         15         16         17         18
     1  C    0.000000   0.000000   0.000000   0.000000   0.000000   0.000000
     2  C    0.000000   0.000000   0.000000   0.000000   0.000000   0.000000
     3  C    0.000000   0.000000   0.000000   0.000000   0.000000   0.000000
     4  C    0.000000   0.000000   0.000000   0.000000   0.000000   0.000000
     5  C    0.000000   0.000000   0.000000   0.000000   0.000000   0.000000
     6  C    0.000000   0.000000   0.000000   0.000000   0.000000   0.000000
     7  C    0.000000   0.000000   0.000000   0.000000   0.000000   0.000000
     8  H    0.000000   0.000000   0.000000   0.000000   0.000000   0.000000
     9  H    0.000000   0.000000   0.000000   0.000000   0.000000   0.000000
    10  H    0.000000   0.000000   0.000000   0.000000   0.000000   0.000000
    11  H    0.000000   0.000000   0.000000   0.000000   0.000000   0.000000
    12  H    0.000000   0.000000   0.000000   0.000000   0.000000   0.000000
    13  H    0.783958   0.000000   0.000000   0.000000   0.000000   0.000000
    14  C    0.000000   4.390705   0.000000   0.000000   0.000000   0.000000
    15  H    0.000000   0.000000   0.782873   0.000000   0.000000   0.000000
    16  H    0.000000   0.000000   0.000000   0.770798   0.000000   0.000000
    17  C    0.000000   0.000000   0.000000   0.000000   4.279865   0.000000
    18  H    0.000000   0.000000   0.000000   0.000000   0.000000   0.818548
    19  H    0.000000   0.000000   0.000000   0.000000   0.000000   0.000000
    20  C    0.000000   0.000000   0.000000   0.000000   0.000000   0.000000
    21  H    0.000000   0.000000   0.000000   0.000000   0.000000   0.000000
    22  C    0.000000   0.000000   0.000000   0.000000   0.000000   0.000000
    23  H    0.000000   0.000000   0.000000   0.000000   0.000000   0.000000
    24  H    0.000000   0.000000   0.000000   0.000000   0.000000   0.000000
    25  H    0.000000   0.000000   0.000000   0.000000   0.000000   0.000000
    26  C    0.000000   0.000000   0.000000   0.000000   0.000000   0.000000
    27  H    0.000000   0.000000   0.000000   0.000000   0.000000   0.000000
    28  H    0.000000   0.000000   0.000000   0.000000   0.000000   0.000000
    29  C    0.000000   0.000000   0.000000   0.000000   0.000000   0.000000
    30  H    0.000000   0.000000   0.000000   0.000000   0.000000   0.000000
    31  H    0.000000   0.000000   0.000000   0.000000   0.000000   0.000000
    32  H    0.000000   0.000000   0.000000   0.000000   0.000000   0.000000
    33  C    0.000000   0.000000   0.000000   0.000000   0.000000   0.000000
    34  H    0.000000   0.000000   0.000000   0.000000   0.000000   0.000000
    35  H    0.000000   0.000000   0.000000   0.000000   0.000000   0.000000
    36  H    0.000000   0.000000   0.000000   0.000000   0.000000   0.000000
    37  C    0.000000   0.000000   0.000000   0.000000   0.000000   0.000000
    38  H    0.000000   0.000000   0.000000   0.000000   0.000000   0.000000
    39  H    0.000000   0.000000   0.000000   0.000000   0.000000   0.000000
    40  H    0.000000   0.000000   0.000000   0.000000   0.000000   0.000000
              19         20         21         22         23         24
     1  C    0.000000   0.000000   0.000000   0.000000   0.000000   0.000000
     2  C    0.000000   0.000000   0.000000   0.000000   0.000000   0.000000
     3  C    0.000000   0.000000   0.000000   0.000000   0.000000   0.000000
     4  C    0.000000   0.000000   0.000000   0.000000   0.000000   0.000000
     5  C    0.000000   0.000000   0.000000   0.000000   0.000000   0.000000
     6  C    0.000000   0.000000   0.000000   0.000000   0.000000   0.000000
     7  C    0.000000   0.000000   0.000000   0.000000   0.000000   0.000000
     8  H    0.000000   0.000000   0.000000   0.000000   0.000000   0.000000
     9  H    0.000000   0.000000   0.000000   0.000000   0.000000   0.000000
    10  H    0.000000   0.000000   0.000000   0.000000   0.000000   0.000000
    11  H    0.000000   0.000000   0.000000   0.000000   0.000000   0.000000
    12  H    0.000000   0.000000   0.000000   0.000000   0.000000   0.000000
    13  H    0.000000   0.000000   0.000000   0.000000   0.000000   0.000000
    14  C    0.000000   0.000000   0.000000   0.000000   0.000000   0.000000
    15  H    0.000000   0.000000   0.000000   0.000000   0.000000   0.000000
    16  H    0.000000   0.000000   0.000000   0.000000   0.000000   0.000000
    17  C    0.000000   0.000000   0.000000   0.000000   0.000000   0.000000
    18  H    0.000000   0.000000   0.000000   0.000000   0.000000   0.000000
    19  H    0.835199   0.000000   0.000000   0.000000   0.000000   0.000000
    20  C    0.000000   4.076611   0.000000   0.000000   0.000000   0.000000
    21  H    0.000000   0.000000   0.833386   0.000000   0.000000   0.000000
    22  C    0.000000   0.000000   0.000000   4.458518   0.000000   0.000000
    23  H    0.000000   0.000000   0.000000   0.000000   0.823996   0.000000
    24  H    0.000000   0.000000   0.000000   0.000000   0.000000   0.833706
    25  H    0.000000   0.000000   0.000000   0.000000   0.000000   0.000000
    26  C    0.000000   0.000000   0.000000   0.000000   0.000000   0.000000
    27  H    0.000000   0.000000   0.000000   0.000000   0.000000   0.000000
    28  H    0.000000   0.000000   0.000000   0.000000   0.000000   0.000000
    29  C    0.000000   0.000000   0.000000   0.000000   0.000000   0.000000
    30  H    0.000000   0.000000   0.000000   0.000000   0.000000   0.000000
    31  H    0.000000   0.000000   0.000000   0.000000   0.000000   0.000000
    32  H    0.000000   0.000000   0.000000   0.000000   0.000000   0.000000
    33  C    0.000000   0.000000   0.000000   0.000000   0.000000   0.000000
    34  H    0.000000   0.000000   0.000000   0.000000   0.000000   0.000000
    35  H    0.000000   0.000000   0.000000   0.000000   0.000000   0.000000
    36  H    0.000000   0.000000   0.000000   0.000000   0.000000   0.000000
    37  C    0.000000   0.000000   0.000000   0.000000   0.000000   0.000000
    38  H    0.000000   0.000000   0.000000   0.000000   0.000000   0.000000
    39  H    0.000000   0.000000   0.000000   0.000000   0.000000   0.000000
    40  H    0.000000   0.000000   0.000000   0.000000   0.000000   0.000000
              25         26         27         28         29         30
     1  C    0.000000   0.000000   0.000000   0.000000   0.000000   0.000000
     2  C    0.000000   0.000000   0.000000   0.000000   0.000000   0.000000
     3  C    0.000000   0.000000   0.000000   0.000000   0.000000   0.000000
     4  C    0.000000   0.000000   0.000000   0.000000   0.000000   0.000000
     5  C    0.000000   0.000000   0.000000   0.000000   0.000000   0.000000
     6  C    0.000000   0.000000   0.000000   0.000000   0.000000   0.000000
     7  C    0.000000   0.000000   0.000000   0.000000   0.000000   0.000000
     8  H    0.000000   0.000000   0.000000   0.000000   0.000000   0.000000
     9  H    0.000000   0.000000   0.000000   0.000000   0.000000   0.000000
    10  H    0.000000   0.000000   0.000000   0.000000   0.000000   0.000000
    11  H    0.000000   0.000000   0.000000   0.000000   0.000000   0.000000
    12  H    0.000000   0.000000   0.000000   0.000000   0.000000   0.000000
    13  H    0.000000   0.000000   0.000000   0.000000   0.000000   0.000000
    14  C    0.000000   0.000000   0.000000   0.000000   0.000000   0.000000
    15  H    0.000000   0.000000   0.000000   0.000000   0.000000   0.000000
    16  H    0.000000   0.000000   0.000000   0.000000   0.000000   0.000000
    17  C    0.000000   0.000000   0.000000   0.000000   0.000000   0.000000
    18  H    0.000000   0.000000   0.000000   0.000000   0.000000   0.000000
    19  H    0.000000   0.000000   0.000000   0.000000   0.000000   0.000000
    20  C    0.000000   0.000000   0.000000   0.000000   0.000000   0.000000
    21  H    0.000000   0.000000   0.000000   0.000000   0.000000   0.000000
    22  C    0.000000   0.000000   0.000000   0.000000   0.000000   0.000000
    23  H    0.000000   0.000000   0.000000   0.000000   0.000000   0.000000
    24  H    0.000000   0.000000   0.000000   0.000000   0.000000   0.000000
    25  H    0.853223   0.000000   0.000000   0.000000   0.000000   0.000000
    26  C    0.000000   4.255053   0.000000   0.000000   0.000000   0.000000
    27  H    0.000000   0.000000   0.802167   0.000000   0.000000   0.000000
    28  H    0.000000   0.000000   0.000000   0.828064   0.000000   0.000000
    29  C    0.000000   0.000000   0.000000   0.000000   4.470309   0.000000
    30  H    0.000000   0.000000   0.000000   0.000000   0.000000   0.862174
    31  H    0.000000   0.000000   0.000000   0.000000   0.000000   0.000000
    32  H    0.000000   0.000000   0.000000   0.000000   0.000000   0.000000
    33  C    0.000000   0.000000   0.000000   0.000000   0.000000   0.000000
    34  H    0.000000   0.000000   0.000000   0.000000   0.000000   0.000000
    35  H    0.000000   0.000000   0.000000   0.000000   0.000000   0.000000
    36  H    0.000000   0.000000   0.000000   0.000000   0.000000   0.000000
    37  C    0.000000   0.000000   0.000000   0.000000   0.000000   0.000000
    38  H    0.000000   0.000000   0.000000   0.000000   0.000000   0.000000
    39  H    0.000000   0.000000   0.000000   0.000000   0.000000   0.000000
    40  H    0.000000   0.000000   0.000000   0.000000   0.000000   0.000000
              31         32         33         34         35         36
     1  C    0.000000   0.000000   0.000000   0.000000   0.000000   0.000000
     2  C    0.000000   0.000000   0.000000   0.000000   0.000000   0.000000
     3  C    0.000000   0.000000   0.000000   0.000000   0.000000   0.000000
     4  C    0.000000   0.000000   0.000000   0.000000   0.000000   0.000000
     5  C    0.000000   0.000000   0.000000   0.000000   0.000000   0.000000
     6  C    0.000000   0.000000   0.000000   0.000000   0.000000   0.000000
     7  C    0.000000   0.000000   0.000000   0.000000   0.000000   0.000000
     8  H    0.000000   0.000000   0.000000   0.000000   0.000000   0.000000
     9  H    0.000000   0.000000   0.000000   0.000000   0.000000   0.000000
    10  H    0.000000   0.000000   0.000000   0.000000   0.000000   0.000000
    11  H    0.000000   0.000000   0.000000   0.000000   0.000000   0.000000
    12  H    0.000000   0.000000   0.000000   0.000000   0.000000   0.000000
    13  H    0.000000   0.000000   0.000000   0.000000   0.000000   0.000000
    14  C    0.000000   0.000000   0.000000   0.000000   0.000000   0.000000
    15  H    0.000000   0.000000   0.000000   0.000000   0.000000   0.000000
    16  H    0.000000   0.000000   0.000000   0.000000   0.000000   0.000000
    17  C    0.000000   0.000000   0.000000   0.000000   0.000000   0.000000
    18  H    0.000000   0.000000   0.000000   0.000000   0.000000   0.000000
    19  H    0.000000   0.000000   0.000000   0.000000   0.000000   0.000000
    20  C    0.000000   0.000000   0.000000   0.000000   0.000000   0.000000
    21  H    0.000000   0.000000   0.000000   0.000000   0.000000   0.000000
    22  C    0.000000   0.000000   0.000000   0.000000   0.000000   0.000000
    23  H    0.000000   0.000000   0.000000   0.000000   0.000000   0.000000
    24  H    0.000000   0.000000   0.000000   0.000000   0.000000   0.000000
    25  H    0.000000   0.000000   0.000000   0.000000   0.000000   0.000000
    26  C    0.000000   0.000000   0.000000   0.000000   0.000000   0.000000
    27  H    0.000000   0.000000   0.000000   0.000000   0.000000   0.000000
    28  H    0.000000   0.000000   0.000000   0.000000   0.000000   0.000000
    29  C    0.000000   0.000000   0.000000   0.000000   0.000000   0.000000
    30  H    0.000000   0.000000   0.000000   0.000000   0.000000   0.000000
    31  H    0.834826   0.000000   0.000000   0.000000   0.000000   0.000000
    32  H    0.000000   0.834944   0.000000   0.000000   0.000000   0.000000
    33  C    0.000000   0.000000   4.465094   0.000000   0.000000   0.000000
    34  H    0.000000   0.000000   0.000000   0.846508   0.000000   0.000000
    35  H    0.000000   0.000000   0.000000   0.000000   0.834556   0.000000
    36  H    0.000000   0.000000   0.000000   0.000000   0.000000   0.837727
    37  C    0.000000   0.000000   0.000000   0.000000   0.000000   0.000000
    38  H    0.000000   0.000000   0.000000   0.000000   0.000000   0.000000
    39  H    0.000000   0.000000   0.000000   0.000000   0.000000   0.000000
    40  H    0.000000   0.000000   0.000000   0.000000   0.000000   0.000000
              37         38         39         40
     1  C    0.000000   0.000000   0.000000   0.000000
     2  C    0.000000   0.000000   0.000000   0.000000
     3  C    0.000000   0.000000   0.000000   0.000000
     4  C    0.000000   0.000000   0.000000   0.000000
     5  C    0.000000   0.000000   0.000000   0.000000
     6  C    0.000000   0.000000   0.000000   0.000000
     7  C    0.000000   0.000000   0.000000   0.000000
     8  H    0.000000   0.000000   0.000000   0.000000
     9  H    0.000000   0.000000   0.000000   0.000000
    10  H    0.000000   0.000000   0.000000   0.000000
    11  H    0.000000   0.000000   0.000000   0.000000
    12  H    0.000000   0.000000   0.000000   0.000000
    13  H    0.000000   0.000000   0.000000   0.000000
    14  C    0.000000   0.000000   0.000000   0.000000
    15  H    0.000000   0.000000   0.000000   0.000000
    16  H    0.000000   0.000000   0.000000   0.000000
    17  C    0.000000   0.000000   0.000000   0.000000
    18  H    0.000000   0.000000   0.000000   0.000000
    19  H    0.000000   0.000000   0.000000   0.000000
    20  C    0.000000   0.000000   0.000000   0.000000
    21  H    0.000000   0.000000   0.000000   0.000000
    22  C    0.000000   0.000000   0.000000   0.000000
    23  H    0.000000   0.000000   0.000000   0.000000
    24  H    0.000000   0.000000   0.000000   0.000000
    25  H    0.000000   0.000000   0.000000   0.000000
    26  C    0.000000   0.000000   0.000000   0.000000
    27  H    0.000000   0.000000   0.000000   0.000000
    28  H    0.000000   0.000000   0.000000   0.000000
    29  C    0.000000   0.000000   0.000000   0.000000
    30  H    0.000000   0.000000   0.000000   0.000000
    31  H    0.000000   0.000000   0.000000   0.000000
    32  H    0.000000   0.000000   0.000000   0.000000
    33  C    0.000000   0.000000   0.000000   0.000000
    34  H    0.000000   0.000000   0.000000   0.000000
    35  H    0.000000   0.000000   0.000000   0.000000
    36  H    0.000000   0.000000   0.000000   0.000000
    37  C    4.424954   0.000000   0.000000   0.000000
    38  H    0.000000   0.829830   0.000000   0.000000
    39  H    0.000000   0.000000   0.833119   0.000000
    40  H    0.000000   0.000000   0.000000   0.810685
 Mulliken charges:
               1
     1  C   -0.302989
     2  C    0.105408
     3  C   -0.322800
     4  C   -0.243643
     5  C   -0.069586
     6  C    0.490504
     7  C   -0.213473
     8  H    0.175964
     9  H    0.147986
    10  H    0.170086
    11  H    0.185307
    12  H    0.188633
    13  H    0.216042
    14  C   -0.390705
    15  H    0.217127
    16  H    0.229202
    17  C   -0.279865
    18  H    0.181452
    19  H    0.164801
    20  C   -0.076611
    21  H    0.166614
    22  C   -0.458518
    23  H    0.176004
    24  H    0.166294
    25  H    0.146777
    26  C   -0.255053
    27  H    0.197833
    28  H    0.171936
    29  C   -0.470309
    30  H    0.137826
    31  H    0.165174
    32  H    0.165056
    33  C   -0.465094
    34  H    0.153492
    35  H    0.165444
    36  H    0.162273
    37  C   -0.424954
    38  H    0.170170
    39  H    0.166881
    40  H    0.189315
 Sum of Mulliken charges =   1.00000
 Mulliken charges with hydrogens summed into heavy atoms:
               1
     1  C    0.043061
     2  C    0.105408
     3  C    0.010493
     4  C   -0.027601
     5  C    0.119047
     6  C    0.490504
     7  C   -0.213473
    14  C    0.055624
    17  C    0.066388
    20  C    0.090003
    22  C    0.030556
    26  C    0.114716
    29  C   -0.002253
    33  C    0.016115
    37  C    0.101412
 APT charges:
               1
     1  C   -0.302989
     2  C    0.105408
     3  C   -0.322800
     4  C   -0.243643
     5  C   -0.069586
     6  C    0.490504
     7  C   -0.213473
     8  H    0.175964
     9  H    0.147986
    10  H    0.170086
    11  H    0.185307
    12  H    0.188633
    13  H    0.216042
    14  C   -0.390705
    15  H    0.217127
    16  H    0.229202
    17  C   -0.279865
    18  H    0.181452
    19  H    0.164801
    20  C   -0.076611
    21  H    0.166614
    22  C   -0.458518
    23  H    0.176004
    24  H    0.166294
    25  H    0.146777
    26  C   -0.255053
    27  H    0.197833
    28  H    0.171936
    29  C   -0.470309
    30  H    0.137826
    31  H    0.165174
    32  H    0.165056
    33  C   -0.465094
    34  H    0.153492
    35  H    0.165444
    36  H    0.162273
    37  C   -0.424954
    38  H    0.170170
    39  H    0.166881
    40  H    0.189315
 Sum of APT charges =   1.00000
 APT charges with hydrogens summed into heavy atoms:
               1
     1  C    0.043061
     2  C    0.105408
     3  C    0.010493
     4  C   -0.027601
     5  C    0.119047
     6  C    0.490504
     7  C   -0.213473
    14  C    0.055624
    17  C    0.066388
    20  C    0.090003
    22  C    0.030556
    26  C    0.114716
    29  C   -0.002253
    33  C    0.016115
    37  C    0.101412
 Charge=              1.0000 electrons
 Dipole moment (field-independent basis, Debye):
    X=              2.8813    Y=              2.5329    Z=              0.5134  Tot=              3.8705
 N-N= 6.302431313535D+02 E-N=-1.068723290855D+03  KE=-1.265809583478D+02
  Exact polarizability:       0.000       0.000       0.000       0.000       0.000       0.000
 Approx polarizability:      77.194      -0.990      73.438      -2.451      -1.065      64.793
 Leave Link  601 at Thu Mar 27 17:19:55 2025, MaxMem=  8053063680 cpu:               0.0 elap:               0.0
 (Enter /home/apps/g16_C02_zen2/g16/l9999.exe)

 This type of calculation cannot be archived.


 THE POLHOLDE ROLLS WITHOUT SLIPPING ON THE HERPOLHOLDE LYING IN
 THE INVARIABLE PLANE.
 H.GOLDSTEIN, "CLASSICAL MECHANICS", PG 161
 Job cpu time:       0 days  0 hours  0 minutes 31.5 seconds.
 Elapsed time:       0 days  0 hours  0 minutes 14.1 seconds.
 File lengths (MBytes):  RWF=     15 Int=      0 D2E=      0 Chk=      9 Scr=      1
 Normal termination of Gaussian 16 at Thu Mar 27 17:19:55 2025.
