 Entering Gaussian System, Link 0=g16
 Input=IM5_tsopt.com
 Output=IM5_tsopt.log
 Initial command:
 /home/apps/g16_C02_zen2/g16/l1.exe "/dev/shm/Gau-1279657.inp" -scrdir="/dev/shm/"
 Default CPUs for threads: 8,9,10,11,12,13,14,15
 Default is to use a total of   8 processors:
                                8 via shared-memory
                                1 via Linda
 Entering Link 1 = /home/apps/g16_C02_zen2/g16/l1.exe PID=   1279658.
  
 Copyright (c) 1988-2021, Gaussian, Inc.  All Rights Reserved.
  
 This is part of the Gaussian(R) 16 program.  It is based on
 the Gaussian(R) 09 system (copyright 2009, Gaussian, Inc.),
 the Gaussian(R) 03 system (copyright 2003, Gaussian, Inc.),
 the Gaussian(R) 98 system (copyright 1998, Gaussian, Inc.),
 the Gaussian(R) 94 system (copyright 1995, Gaussian, Inc.),
 the Gaussian 92(TM) system (copyright 1992, Gaussian, Inc.),
 the Gaussian 90(TM) system (copyright 1990, Gaussian, Inc.),
 the Gaussian 88(TM) system (copyright 1988, Gaussian, Inc.),
 the Gaussian 86(TM) system (copyright 1986, Carnegie Mellon
 University), and the Gaussian 82(TM) system (copyright 1983,
 Carnegie Mellon University). Gaussian is a federally registered
 trademark of Gaussian, Inc.
  
 This software contains proprietary and confidential information,
 including trade secrets, belonging to Gaussian, Inc.
  
 This software is provided under written license and may be
 used, copied, transmitted, or stored only in accord with that
 written license.
  
 The following legend is applicable only to US Government
 contracts under FAR:
  
                    RESTRICTED RIGHTS LEGEND
  
 Use, reproduction and disclosure by the US Government is
 subject to restrictions as set forth in subparagraphs (a)
 and (c) of the Commercial Computer Software - Restricted
 Rights clause in FAR 52.227-19.
  
 Gaussian, Inc.
 340 Quinnipiac St., Bldg. 40, Wallingford CT 06492
  
  
 ---------------------------------------------------------------
 Warning -- This program may not be used in any manner that
 competes with the business of Gaussian, Inc. or will provide
 assistance to any competitor of Gaussian, Inc.  The licensee
 of this program is prohibited from giving any competitor of
 Gaussian, Inc. access to this program.  By using this program,
 the user acknowledges that Gaussian, Inc. is engaged in the
 business of creating and licensing software in the field of
 computational chemistry and represents and warrants to the
 licensee that it is not a competitor of Gaussian, Inc. and that
 it will not use this program in any manner prohibited above.
 ---------------------------------------------------------------
  

 Cite this work as:
 Gaussian 16, Revision C.02,
 M. J. Frisch, G. W. Trucks, H. B. Schlegel, G. E. Scuseria, 
 M. A. Robb, J. R. Cheeseman, G. Scalmani, V. Barone, 
 G. A. Petersson, H. Nakatsuji, X. Li, M. Caricato, A. V. Marenich, 
 J. Bloino, B. G. Janesko, R. Gomperts, B. Mennucci, H. P. Hratchian, 
 J. V. Ortiz, A. F. Izmaylov, J. L. Sonnenberg, D. Williams-Young, 
 F. Ding, F. Lipparini, F. Egidi, J. Goings, B. Peng, A. Petrone, 
 T. Henderson, D. Ranasinghe, V. G. Zakrzewski, J. Gao, N. Rega, 
 G. Zheng, W. Liang, M. Hada, M. Ehara, K. Toyota, R. Fukuda, 
 J. Hasegawa, M. Ishida, T. Nakajima, Y. Honda, O. Kitao, H. Nakai, 
 T. Vreven, K. Throssell, J. A. Montgomery, Jr., J. E. Peralta, 
 F. Ogliaro, M. J. Bearpark, J. J. Heyd, E. N. Brothers, K. N. Kudin, 
 V. N. Staroverov, T. A. Keith, R. Kobayashi, J. Normand, 
 K. Raghavachari, A. P. Rendell, J. C. Burant, S. S. Iyengar, 
 J. Tomasi, M. Cossi, J. M. Millam, M. Klene, C. Adamo, R. Cammi, 
 J. W. Ochterski, R. L. Martin, K. Morokuma, O. Farkas, 
 J. B. Foresman, and D. J. Fox, Gaussian, Inc., Wallingford CT, 2019.
 
 ******************************************
 Gaussian 16:  AS64L-G16RevC.02  7-Dec-2021
                27-Mar-2025 
 ******************************************
 %nosave
 %chk=IM5_tsopt.chk
 SetSPE:  set environment variable "OMP_PROC_BIND" = "true"
 SetSPE:  set environment variable "OMP_PLACES" = "{8},{9},{10},{11},{12},{13},{14},{15}"
 ----------------------------------------------------------------------
 #p PM7 opt=(calcfc,tight,ts,noeig,maxcyc=500) freq=noraman pop=none io
 p(1/8=10)
 ----------------------------------------------------------------------
 1/5=1,6=500,7=10,8=10,10=4,11=1,18=20,26=1,38=1/1,3;
 2/9=110,12=2,17=6,18=5,40=1/2;
 3/5=2,25=1,41=4200000,71=2,140=1/1,2,3;
 4/35=1/1;
 5/5=2,35=1,38=5/2;
 8/6=4,10=90,11=11/1;
 11/6=1,8=1,9=11,15=111,16=1/1,2,10;
 10/6=1,13=1/2;
 7/10=1,25=1/1,2,3,16;
 1/5=1,6=500,7=10,8=10,10=4,11=1,18=20,26=1/3(2);
 2/9=110/2;
 99//99;
 2/9=110/2;
 3/5=2,25=1,41=4200000,71=1,135=20/1,2,3;
 4/5=5,16=3,35=1/1;
 5/5=2,35=1,38=5/2;
 7//1,2,3,16;
 1/5=1,6=500,7=10,8=10,11=1,18=20,26=1/3(-5);
 2/9=110/2;
 99/9=1/99;
 Leave Link    1 at Thu Mar 27 17:16:38 2025, MaxMem=           0 cpu:               0.0 elap:               0.0
 (Enter /home/apps/g16_C02_zen2/g16/l101.exe)
 -----
 title
 -----
 Symbolic Z-matrix:
 Charge =  1 Multiplicity = 1
 C                    -0.4305   -1.59465   0.25236 
 C                    -1.8404   -0.98609   0.01213 
 C                    -2.06143   0.27978   0.86708 
 C                     0.74331  -0.71367   0.31256 
 C                    -1.58536   1.53169   0.17997 
 C                     0.87733   0.69896   0.26483 
 C                    -0.10949   1.71558  -0.16903 
 H                    -0.46708  -2.23125   1.17537 
 H                    -1.6196    0.15555   1.87142 
 H                    -0.26375  -2.36247  -0.55576 
 H                    -3.15371   0.39174   1.07659 
 H                    -2.31757   1.89723  -0.56045 
 H                     0.60261   0.24155   1.46279 
 C                     2.34879   1.08304   0.24697 
 H                     2.57205   1.93833   0.91346 
 H                     2.64877   1.42649  -0.76728 
 C                     3.10225  -0.19559   0.64729 
 H                     4.03486  -0.31596   0.06227 
 H                     3.43413  -0.15899   1.70146 
 C                     2.12007  -1.36589   0.40769 
 H                     2.17174  -2.10191   1.24697 
 C                     2.41471  -2.08607  -0.90606 
 H                     3.44836  -2.47276  -0.91602 
 H                     1.76399  -2.95522  -1.06878 
 H                     2.32     -1.42552  -1.77845 
 C                    -0.7673    2.56414   0.90962 
 H                    -0.94247   3.62575   0.71598 
 H                    -0.51017   2.43675   1.95635 
 C                    -2.02125  -0.70822  -1.4823 
 H                    -1.23533  -0.06313  -1.88792 
 H                    -2.02244  -1.63367  -2.07312 
 H                    -2.98267  -0.2134   -1.68197 
 C                    -2.86872  -2.04537   0.44377 
 H                    -2.84401  -2.23925   1.52194 
 H                    -3.89268  -1.7248    0.20079 
 H                    -2.71797  -3.00205  -0.07128 
 C                     0.24193   2.35291  -1.4871 
 H                     1.09473   3.04268  -1.39704 
 H                     0.48743   1.60927  -2.25743 
 H                    -0.59274   2.95175  -1.88849 
 
 Add virtual bond connecting atoms H13        and C6         Dist= 2.48D+00.
 ITRead=  0  0  0  0  0  0  0  0  0  0  0  0  0  0  0  0  0  0  0  0
 ITRead=  0  0  0  0  0  0  0  0  0  0  0  0  0  0  0  0  0  0  0  0
 MicOpt= -1 -1 -1 -1 -1 -1 -1 -1 -1 -1 -1 -1 -1 -1 -1 -1 -1 -1 -1 -1
 MicOpt= -1 -1 -1 -1 -1 -1 -1 -1 -1 -1 -1 -1 -1 -1 -1 -1 -1 -1 -1 -1
 NAtoms=     40 NQM=       40 NQMF=       0 NMMI=      0 NMMIF=      0
                NMic=       0 NMicF=      0.
                    Isotopes and Nuclear Properties:
 (Nuclear quadrupole moments (NQMom) in fm**2, nuclear magnetic moments (NMagM)
  in nuclear magnetons)

  Atom         1           2           3           4           5           6           7           8           9          10
 IAtWgt=          12          12          12          12          12          12          12           1           1           1
 AtmWgt=  12.0000000  12.0000000  12.0000000  12.0000000  12.0000000  12.0000000  12.0000000   1.0078250   1.0078250   1.0078250
 NucSpn=           0           0           0           0           0           0           0           1           1           1
 AtZEff=  -0.0000000  -0.0000000  -0.0000000  -0.0000000  -0.0000000  -0.0000000  -0.0000000  -0.0000000  -0.0000000  -0.0000000
 NQMom=    0.0000000   0.0000000   0.0000000   0.0000000   0.0000000   0.0000000   0.0000000   0.0000000   0.0000000   0.0000000
 NMagM=    0.0000000   0.0000000   0.0000000   0.0000000   0.0000000   0.0000000   0.0000000   2.7928460   2.7928460   2.7928460
 AtZNuc=   6.0000000   6.0000000   6.0000000   6.0000000   6.0000000   6.0000000   6.0000000   1.0000000   1.0000000   1.0000000

  Atom        11          12          13          14          15          16          17          18          19          20
 IAtWgt=           1           1           1          12           1           1          12           1           1          12
 AtmWgt=   1.0078250   1.0078250   1.0078250  12.0000000   1.0078250   1.0078250  12.0000000   1.0078250   1.0078250  12.0000000
 NucSpn=           1           1           1           0           1           1           0           1           1           0
 AtZEff=  -0.0000000  -0.0000000  -0.0000000  -0.0000000  -0.0000000  -0.0000000  -0.0000000  -0.0000000  -0.0000000  -0.0000000
 NQMom=    0.0000000   0.0000000   0.0000000   0.0000000   0.0000000   0.0000000   0.0000000   0.0000000   0.0000000   0.0000000
 NMagM=    2.7928460   2.7928460   2.7928460   0.0000000   2.7928460   2.7928460   0.0000000   2.7928460   2.7928460   0.0000000
 AtZNuc=   1.0000000   1.0000000   1.0000000   6.0000000   1.0000000   1.0000000   6.0000000   1.0000000   1.0000000   6.0000000

  Atom        21          22          23          24          25          26          27          28          29          30
 IAtWgt=           1          12           1           1           1          12           1           1          12           1
 AtmWgt=   1.0078250  12.0000000   1.0078250   1.0078250   1.0078250  12.0000000   1.0078250   1.0078250  12.0000000   1.0078250
 NucSpn=           1           0           1           1           1           0           1           1           0           1
 AtZEff=  -0.0000000  -0.0000000  -0.0000000  -0.0000000  -0.0000000  -0.0000000  -0.0000000  -0.0000000  -0.0000000  -0.0000000
 NQMom=    0.0000000   0.0000000   0.0000000   0.0000000   0.0000000   0.0000000   0.0000000   0.0000000   0.0000000   0.0000000
 NMagM=    2.7928460   0.0000000   2.7928460   2.7928460   2.7928460   0.0000000   2.7928460   2.7928460   0.0000000   2.7928460
 AtZNuc=   1.0000000   6.0000000   1.0000000   1.0000000   1.0000000   6.0000000   1.0000000   1.0000000   6.0000000   1.0000000

  Atom        31          32          33          34          35          36          37          38          39          40
 IAtWgt=           1           1          12           1           1           1          12           1           1           1
 AtmWgt=   1.0078250   1.0078250  12.0000000   1.0078250   1.0078250   1.0078250  12.0000000   1.0078250   1.0078250   1.0078250
 NucSpn=           1           1           0           1           1           1           0           1           1           1
 AtZEff=  -0.0000000  -0.0000000  -0.0000000  -0.0000000  -0.0000000  -0.0000000  -0.0000000  -0.0000000  -0.0000000  -0.0000000
 NQMom=    0.0000000   0.0000000   0.0000000   0.0000000   0.0000000   0.0000000   0.0000000   0.0000000   0.0000000   0.0000000
 NMagM=    2.7928460   2.7928460   0.0000000   2.7928460   2.7928460   2.7928460   0.0000000   2.7928460   2.7928460   2.7928460
 AtZNuc=   1.0000000   1.0000000   6.0000000   1.0000000   1.0000000   1.0000000   6.0000000   1.0000000   1.0000000   1.0000000
 Leave Link  101 at Thu Mar 27 17:16:38 2025, MaxMem=  8053063680 cpu:               0.2 elap:               0.2
 (Enter /home/apps/g16_C02_zen2/g16/l103.exe)

 GradGradGradGradGradGradGradGradGradGradGradGradGradGradGradGradGradGrad
 Berny optimization.
 Initialization pass.
                           ----------------------------
                           !    Initial Parameters    !
                           ! (Angstroms and Degrees)  !
 --------------------------                            --------------------------
 ! Name  Definition              Value          Derivative Info.                !
 --------------------------------------------------------------------------------
 ! R1    R(1,2)                  1.5543         calculate D2E/DX2 analytically  !
 ! R2    R(1,4)                  1.4689         calculate D2E/DX2 analytically  !
 ! R3    R(1,8)                  1.1219         calculate D2E/DX2 analytically  !
 ! R4    R(1,10)                 1.1271         calculate D2E/DX2 analytically  !
 ! R5    R(2,3)                  1.5434         calculate D2E/DX2 analytically  !
 ! R6    R(2,29)                 1.5308         calculate D2E/DX2 analytically  !
 ! R7    R(2,33)                 1.5381         calculate D2E/DX2 analytically  !
 ! R8    R(3,5)                  1.5053         calculate D2E/DX2 analytically  !
 ! R9    R(3,9)                  1.1042         calculate D2E/DX2 analytically  !
 ! R10   R(3,11)                 1.1178         calculate D2E/DX2 analytically  !
 ! R11   R(4,6)                  1.4198         calculate D2E/DX2 analytically  !
 ! R12   R(4,20)                 1.5264         calculate D2E/DX2 analytically  !
 ! R13   R(5,7)                  1.5277         calculate D2E/DX2 analytically  !
 ! R14   R(5,12)                 1.1036         calculate D2E/DX2 analytically  !
 ! R15   R(5,26)                 1.5059         calculate D2E/DX2 analytically  !
 ! R16   R(6,7)                  1.4817         calculate D2E/DX2 analytically  !
 ! R17   R(6,13)                 1.3114         calculate D2E/DX2 analytically  !
 ! R18   R(6,14)                 1.5209         calculate D2E/DX2 analytically  !
 ! R19   R(7,26)                 1.5219         calculate D2E/DX2 analytically  !
 ! R20   R(7,37)                 1.5056         calculate D2E/DX2 analytically  !
 ! R21   R(14,15)                1.1071         calculate D2E/DX2 analytically  !
 ! R22   R(14,16)                1.1121         calculate D2E/DX2 analytically  !
 ! R23   R(14,17)                1.5372         calculate D2E/DX2 analytically  !
 ! R24   R(17,18)                1.1075         calculate D2E/DX2 analytically  !
 ! R25   R(17,19)                1.1058         calculate D2E/DX2 analytically  !
 ! R26   R(17,20)                1.5465         calculate D2E/DX2 analytically  !
 ! R27   R(20,21)                1.1175         calculate D2E/DX2 analytically  !
 ! R28   R(20,22)                1.5269         calculate D2E/DX2 analytically  !
 ! R29   R(22,23)                1.1037         calculate D2E/DX2 analytically  !
 ! R30   R(22,24)                1.0979         calculate D2E/DX2 analytically  !
 ! R31   R(22,25)                1.0983         calculate D2E/DX2 analytically  !
 ! R32   R(26,27)                1.0933         calculate D2E/DX2 analytically  !
 ! R33   R(26,28)                1.0854         calculate D2E/DX2 analytically  !
 ! R34   R(29,30)                1.0947         calculate D2E/DX2 analytically  !
 ! R35   R(29,31)                1.098          calculate D2E/DX2 analytically  !
 ! R36   R(29,32)                1.0996         calculate D2E/DX2 analytically  !
 ! R37   R(33,34)                1.0957         calculate D2E/DX2 analytically  !
 ! R38   R(33,35)                1.1001         calculate D2E/DX2 analytically  !
 ! R39   R(33,36)                1.0969         calculate D2E/DX2 analytically  !
 ! R40   R(37,38)                1.1005         calculate D2E/DX2 analytically  !
 ! R41   R(37,39)                1.0985         calculate D2E/DX2 analytically  !
 ! R42   R(37,40)                1.1029         calculate D2E/DX2 analytically  !
 ! A1    A(2,1,4)              119.7614         calculate D2E/DX2 analytically  !
 ! A2    A(2,1,8)              108.6489         calculate D2E/DX2 analytically  !
 ! A3    A(2,1,10)             106.864          calculate D2E/DX2 analytically  !
 ! A4    A(4,1,8)              109.4315         calculate D2E/DX2 analytically  !
 ! A5    A(4,1,10)             108.6463         calculate D2E/DX2 analytically  !
 ! A6    A(8,1,10)             102.0144         calculate D2E/DX2 analytically  !
 ! A7    A(1,2,3)              111.4326         calculate D2E/DX2 analytically  !
 ! A8    A(1,2,29)             109.2163         calculate D2E/DX2 analytically  !
 ! A9    A(1,2,33)             107.063          calculate D2E/DX2 analytically  !
 ! A10   A(3,2,29)             112.0233         calculate D2E/DX2 analytically  !
 ! A11   A(3,2,33)             108.2787         calculate D2E/DX2 analytically  !
 ! A12   A(29,2,33)            108.6621         calculate D2E/DX2 analytically  !
 ! A13   A(2,3,5)              112.5786         calculate D2E/DX2 analytically  !
 ! A14   A(2,3,9)              110.7471         calculate D2E/DX2 analytically  !
 ! A15   A(2,3,11)             109.0206         calculate D2E/DX2 analytically  !
 ! A16   A(5,3,9)              112.4685         calculate D2E/DX2 analytically  !
 ! A17   A(5,3,11)             108.1367         calculate D2E/DX2 analytically  !
 ! A18   A(9,3,11)             103.4017         calculate D2E/DX2 analytically  !
 ! A19   A(1,4,6)              132.1288         calculate D2E/DX2 analytically  !
 ! A20   A(1,4,20)             117.8441         calculate D2E/DX2 analytically  !
 ! A21   A(6,4,20)             110.0045         calculate D2E/DX2 analytically  !
 ! A22   A(3,5,7)              120.6582         calculate D2E/DX2 analytically  !
 ! A23   A(3,5,12)             111.8309         calculate D2E/DX2 analytically  !
 ! A24   A(3,5,26)             121.3884         calculate D2E/DX2 analytically  !
 ! A25   A(7,5,12)             116.6044         calculate D2E/DX2 analytically  !
 ! A26   A(12,5,26)            117.2851         calculate D2E/DX2 analytically  !
 ! A27   A(4,6,7)              129.0223         calculate D2E/DX2 analytically  !
 ! A28   A(4,6,13)              66.5764         calculate D2E/DX2 analytically  !
 ! A29   A(4,6,14)             110.0591         calculate D2E/DX2 analytically  !
 ! A30   A(7,6,13)             111.5469         calculate D2E/DX2 analytically  !
 ! A31   A(7,6,14)             117.8819         calculate D2E/DX2 analytically  !
 ! A32   A(13,6,14)            107.547          calculate D2E/DX2 analytically  !
 ! A33   A(5,7,6)              119.5986         calculate D2E/DX2 analytically  !
 ! A34   A(5,7,37)             118.4522         calculate D2E/DX2 analytically  !
 ! A35   A(6,7,26)             117.5725         calculate D2E/DX2 analytically  !
 ! A36   A(6,7,37)             113.0352         calculate D2E/DX2 analytically  !
 ! A37   A(26,7,37)            119.0333         calculate D2E/DX2 analytically  !
 ! A38   A(6,14,15)            112.5298         calculate D2E/DX2 analytically  !
 ! A39   A(6,14,16)            110.4685         calculate D2E/DX2 analytically  !
 ! A40   A(6,14,17)            105.1368         calculate D2E/DX2 analytically  !
 ! A41   A(15,14,16)           104.8377         calculate D2E/DX2 analytically  !
 ! A42   A(15,14,17)           112.7677         calculate D2E/DX2 analytically  !
 ! A43   A(16,14,17)           111.2356         calculate D2E/DX2 analytically  !
 ! A44   A(14,17,18)           111.4448         calculate D2E/DX2 analytically  !
 ! A45   A(14,17,19)           111.5834         calculate D2E/DX2 analytically  !
 ! A46   A(14,17,20)           106.1294         calculate D2E/DX2 analytically  !
 ! A47   A(18,17,19)           104.7414         calculate D2E/DX2 analytically  !
 ! A48   A(18,17,20)           111.7606         calculate D2E/DX2 analytically  !
 ! A49   A(19,17,20)           111.3065         calculate D2E/DX2 analytically  !
 ! A50   A(4,20,17)            105.0195         calculate D2E/DX2 analytically  !
 ! A51   A(4,20,21)            111.7119         calculate D2E/DX2 analytically  !
 ! A52   A(4,20,22)            108.7816         calculate D2E/DX2 analytically  !
 ! A53   A(17,20,21)           110.6519         calculate D2E/DX2 analytically  !
 ! A54   A(17,20,22)           111.5723         calculate D2E/DX2 analytically  !
 ! A55   A(21,20,22)           109.0638         calculate D2E/DX2 analytically  !
 ! A56   A(20,22,23)           110.7171         calculate D2E/DX2 analytically  !
 ! A57   A(20,22,24)           112.7397         calculate D2E/DX2 analytically  !
 ! A58   A(20,22,25)           112.5259         calculate D2E/DX2 analytically  !
 ! A59   A(23,22,24)           106.0449         calculate D2E/DX2 analytically  !
 ! A60   A(23,22,25)           106.5175         calculate D2E/DX2 analytically  !
 ! A61   A(24,22,25)           107.8955         calculate D2E/DX2 analytically  !
 ! A62   A(5,26,27)            119.5323         calculate D2E/DX2 analytically  !
 ! A63   A(5,26,28)            121.0329         calculate D2E/DX2 analytically  !
 ! A64   A(7,26,27)            119.0219         calculate D2E/DX2 analytically  !
 ! A65   A(7,26,28)            121.043          calculate D2E/DX2 analytically  !
 ! A66   A(27,26,28)           108.8297         calculate D2E/DX2 analytically  !
 ! A67   A(2,29,30)            112.5747         calculate D2E/DX2 analytically  !
 ! A68   A(2,29,31)            111.8675         calculate D2E/DX2 analytically  !
 ! A69   A(2,29,32)            111.2401         calculate D2E/DX2 analytically  !
 ! A70   A(30,29,31)           107.3425         calculate D2E/DX2 analytically  !
 ! A71   A(30,29,32)           107.1728         calculate D2E/DX2 analytically  !
 ! A72   A(31,29,32)           106.2993         calculate D2E/DX2 analytically  !
 ! A73   A(2,33,34)            112.5134         calculate D2E/DX2 analytically  !
 ! A74   A(2,33,35)            111.0756         calculate D2E/DX2 analytically  !
 ! A75   A(2,33,36)            112.1473         calculate D2E/DX2 analytically  !
 ! A76   A(34,33,35)           106.8505         calculate D2E/DX2 analytically  !
 ! A77   A(34,33,36)           107.7335         calculate D2E/DX2 analytically  !
 ! A78   A(35,33,36)           106.1621         calculate D2E/DX2 analytically  !
 ! A79   A(7,37,38)            111.9949         calculate D2E/DX2 analytically  !
 ! A80   A(7,37,39)            112.3033         calculate D2E/DX2 analytically  !
 ! A81   A(7,37,40)            111.8263         calculate D2E/DX2 analytically  !
 ! A82   A(38,37,39)           107.9693         calculate D2E/DX2 analytically  !
 ! A83   A(38,37,40)           106.0159         calculate D2E/DX2 analytically  !
 ! A84   A(39,37,40)           106.349          calculate D2E/DX2 analytically  !
 ! D1    D(4,1,2,3)            -43.9731         calculate D2E/DX2 analytically  !
 ! D2    D(4,1,2,29)            80.3206         calculate D2E/DX2 analytically  !
 ! D3    D(4,1,2,33)          -162.1985         calculate D2E/DX2 analytically  !
 ! D4    D(8,1,2,3)             82.7138         calculate D2E/DX2 analytically  !
 ! D5    D(8,1,2,29)          -152.9925         calculate D2E/DX2 analytically  !
 ! D6    D(8,1,2,33)           -35.5115         calculate D2E/DX2 analytically  !
 ! D7    D(10,1,2,3)          -167.9039         calculate D2E/DX2 analytically  !
 ! D8    D(10,1,2,29)          -43.6102         calculate D2E/DX2 analytically  !
 ! D9    D(10,1,2,33)           73.8707         calculate D2E/DX2 analytically  !
 ! D10   D(2,1,4,6)              4.1716         calculate D2E/DX2 analytically  !
 ! D11   D(2,1,4,20)          -173.8999         calculate D2E/DX2 analytically  !
 ! D12   D(8,1,4,6)           -122.1503         calculate D2E/DX2 analytically  !
 ! D13   D(8,1,4,20)            59.7781         calculate D2E/DX2 analytically  !
 ! D14   D(10,1,4,6)           127.2402         calculate D2E/DX2 analytically  !
 ! D15   D(10,1,4,20)          -50.8314         calculate D2E/DX2 analytically  !
 ! D16   D(1,2,3,5)             87.9328         calculate D2E/DX2 analytically  !
 ! D17   D(1,2,3,9)            -38.9455         calculate D2E/DX2 analytically  !
 ! D18   D(1,2,3,11)          -152.0712         calculate D2E/DX2 analytically  !
 ! D19   D(29,2,3,5)           -34.7647         calculate D2E/DX2 analytically  !
 ! D20   D(29,2,3,9)          -161.643          calculate D2E/DX2 analytically  !
 ! D21   D(29,2,3,11)           85.2313         calculate D2E/DX2 analytically  !
 ! D22   D(33,2,3,5)          -154.5746         calculate D2E/DX2 analytically  !
 ! D23   D(33,2,3,9)            78.5471         calculate D2E/DX2 analytically  !
 ! D24   D(33,2,3,11)          -34.5785         calculate D2E/DX2 analytically  !
 ! D25   D(1,2,29,30)          -55.8403         calculate D2E/DX2 analytically  !
 ! D26   D(1,2,29,31)           65.1371         calculate D2E/DX2 analytically  !
 ! D27   D(1,2,29,32)         -176.1483         calculate D2E/DX2 analytically  !
 ! D28   D(3,2,29,30)           68.106          calculate D2E/DX2 analytically  !
 ! D29   D(3,2,29,31)         -170.9166         calculate D2E/DX2 analytically  !
 ! D30   D(3,2,29,32)          -52.202          calculate D2E/DX2 analytically  !
 ! D31   D(33,2,29,30)        -172.3087         calculate D2E/DX2 analytically  !
 ! D32   D(33,2,29,31)         -51.3313         calculate D2E/DX2 analytically  !
 ! D33   D(33,2,29,32)          67.3833         calculate D2E/DX2 analytically  !
 ! D34   D(1,2,33,34)           66.3564         calculate D2E/DX2 analytically  !
 ! D35   D(1,2,33,35)         -173.9065         calculate D2E/DX2 analytically  !
 ! D36   D(1,2,33,36)          -55.2909         calculate D2E/DX2 analytically  !
 ! D37   D(3,2,33,34)          -53.9035         calculate D2E/DX2 analytically  !
 ! D38   D(3,2,33,35)           65.8335         calculate D2E/DX2 analytically  !
 ! D39   D(3,2,33,36)         -175.5509         calculate D2E/DX2 analytically  !
 ! D40   D(29,2,33,34)        -175.7998         calculate D2E/DX2 analytically  !
 ! D41   D(29,2,33,35)         -56.0628         calculate D2E/DX2 analytically  !
 ! D42   D(29,2,33,36)          62.5528         calculate D2E/DX2 analytically  !
 ! D43   D(2,3,5,7)            -62.8907         calculate D2E/DX2 analytically  !
 ! D44   D(2,3,5,12)            80.0748         calculate D2E/DX2 analytically  !
 ! D45   D(2,3,5,26)          -134.5483         calculate D2E/DX2 analytically  !
 ! D46   D(9,3,5,7)             63.0632         calculate D2E/DX2 analytically  !
 ! D47   D(9,3,5,12)          -153.9712         calculate D2E/DX2 analytically  !
 ! D48   D(9,3,5,26)            -8.5943         calculate D2E/DX2 analytically  !
 ! D49   D(11,3,5,7)           176.6038         calculate D2E/DX2 analytically  !
 ! D50   D(11,3,5,12)          -40.4307         calculate D2E/DX2 analytically  !
 ! D51   D(11,3,5,26)          104.9463         calculate D2E/DX2 analytically  !
 ! D52   D(1,4,6,7)            -15.5603         calculate D2E/DX2 analytically  !
 ! D53   D(1,4,6,13)            83.8838         calculate D2E/DX2 analytically  !
 ! D54   D(1,4,6,14)          -175.0703         calculate D2E/DX2 analytically  !
 ! D55   D(20,4,6,7)           162.6251         calculate D2E/DX2 analytically  !
 ! D56   D(20,4,6,13)          -97.9308         calculate D2E/DX2 analytically  !
 ! D57   D(20,4,6,14)            3.1151         calculate D2E/DX2 analytically  !
 ! D58   D(1,4,20,17)         -172.4931         calculate D2E/DX2 analytically  !
 ! D59   D(1,4,20,21)          -52.5004         calculate D2E/DX2 analytically  !
 ! D60   D(1,4,20,22)           67.947          calculate D2E/DX2 analytically  !
 ! D61   D(6,4,20,17)            9.0289         calculate D2E/DX2 analytically  !
 ! D62   D(6,4,20,21)          129.0215         calculate D2E/DX2 analytically  !
 ! D63   D(6,4,20,22)         -110.5311         calculate D2E/DX2 analytically  !
 ! D64   D(3,5,7,6)             -4.6823         calculate D2E/DX2 analytically  !
 ! D65   D(3,5,7,37)           140.3679         calculate D2E/DX2 analytically  !
 ! D66   D(12,5,7,6)          -145.9774         calculate D2E/DX2 analytically  !
 ! D67   D(12,5,7,37)           -0.9272         calculate D2E/DX2 analytically  !
 ! D68   D(3,5,26,27)         -141.468          calculate D2E/DX2 analytically  !
 ! D69   D(3,5,26,28)           -0.7757         calculate D2E/DX2 analytically  !
 ! D70   D(12,5,26,27)           2.1292         calculate D2E/DX2 analytically  !
 ! D71   D(12,5,26,28)         142.8214         calculate D2E/DX2 analytically  !
 ! D72   D(4,6,7,5)             38.3691         calculate D2E/DX2 analytically  !
 ! D73   D(4,6,7,26)           106.7691         calculate D2E/DX2 analytically  !
 ! D74   D(4,6,7,37)          -108.4485         calculate D2E/DX2 analytically  !
 ! D75   D(13,6,7,5)           -38.3266         calculate D2E/DX2 analytically  !
 ! D76   D(13,6,7,26)           30.0733         calculate D2E/DX2 analytically  !
 ! D77   D(13,6,7,37)          174.8557         calculate D2E/DX2 analytically  !
 ! D78   D(14,6,7,5)          -163.4694         calculate D2E/DX2 analytically  !
 ! D79   D(14,6,7,26)          -95.0694         calculate D2E/DX2 analytically  !
 ! D80   D(14,6,7,37)           49.7129         calculate D2E/DX2 analytically  !
 ! D81   D(4,6,14,15)         -137.1463         calculate D2E/DX2 analytically  !
 ! D82   D(4,6,14,16)          106.0613         calculate D2E/DX2 analytically  !
 ! D83   D(4,6,14,17)          -14.0365         calculate D2E/DX2 analytically  !
 ! D84   D(7,6,14,15)           60.7723         calculate D2E/DX2 analytically  !
 ! D85   D(7,6,14,16)          -56.0202         calculate D2E/DX2 analytically  !
 ! D86   D(7,6,14,17)         -176.118          calculate D2E/DX2 analytically  !
 ! D87   D(13,6,14,15)         -66.3174         calculate D2E/DX2 analytically  !
 ! D88   D(13,6,14,16)         176.8901         calculate D2E/DX2 analytically  !
 ! D89   D(13,6,14,17)          56.7923         calculate D2E/DX2 analytically  !
 ! D90   D(6,7,26,27)          140.7508         calculate D2E/DX2 analytically  !
 ! D91   D(6,7,26,28)            0.8677         calculate D2E/DX2 analytically  !
 ! D92   D(37,7,26,27)          -1.878          calculate D2E/DX2 analytically  !
 ! D93   D(37,7,26,28)        -141.7611         calculate D2E/DX2 analytically  !
 ! D94   D(5,7,37,38)          140.2677         calculate D2E/DX2 analytically  !
 ! D95   D(5,7,37,39)          -98.0428         calculate D2E/DX2 analytically  !
 ! D96   D(5,7,37,40)           21.4313         calculate D2E/DX2 analytically  !
 ! D97   D(6,7,37,38)          -72.5019         calculate D2E/DX2 analytically  !
 ! D98   D(6,7,37,39)           49.1877         calculate D2E/DX2 analytically  !
 ! D99   D(6,7,37,40)          168.6617         calculate D2E/DX2 analytically  !
 ! D100  D(26,7,37,38)          71.7194         calculate D2E/DX2 analytically  !
 ! D101  D(26,7,37,39)        -166.5911         calculate D2E/DX2 analytically  !
 ! D102  D(26,7,37,40)         -47.1171         calculate D2E/DX2 analytically  !
 ! D103  D(6,14,17,18)         140.9783         calculate D2E/DX2 analytically  !
 ! D104  D(6,14,17,19)        -102.3175         calculate D2E/DX2 analytically  !
 ! D105  D(6,14,17,20)          19.0932         calculate D2E/DX2 analytically  !
 ! D106  D(15,14,17,18)        -96.0647         calculate D2E/DX2 analytically  !
 ! D107  D(15,14,17,19)         20.6396         calculate D2E/DX2 analytically  !
 ! D108  D(15,14,17,20)        142.0502         calculate D2E/DX2 analytically  !
 ! D109  D(16,14,17,18)         21.3897         calculate D2E/DX2 analytically  !
 ! D110  D(16,14,17,19)        138.0939         calculate D2E/DX2 analytically  !
 ! D111  D(16,14,17,20)       -100.4954         calculate D2E/DX2 analytically  !
 ! D112  D(14,17,20,4)         -17.3171         calculate D2E/DX2 analytically  !
 ! D113  D(14,17,20,21)       -138.0115         calculate D2E/DX2 analytically  !
 ! D114  D(14,17,20,22)        100.3633         calculate D2E/DX2 analytically  !
 ! D115  D(18,17,20,4)        -139.0004         calculate D2E/DX2 analytically  !
 ! D116  D(18,17,20,21)        100.3052         calculate D2E/DX2 analytically  !
 ! D117  D(18,17,20,22)        -21.32           calculate D2E/DX2 analytically  !
 ! D118  D(19,17,20,4)         104.271          calculate D2E/DX2 analytically  !
 ! D119  D(19,17,20,21)        -16.4233         calculate D2E/DX2 analytically  !
 ! D120  D(19,17,20,22)       -138.0485         calculate D2E/DX2 analytically  !
 ! D121  D(4,20,22,23)         173.5926         calculate D2E/DX2 analytically  !
 ! D122  D(4,20,22,24)         -67.7926         calculate D2E/DX2 analytically  !
 ! D123  D(4,20,22,25)          54.5193         calculate D2E/DX2 analytically  !
 ! D124  D(17,20,22,23)         58.2017         calculate D2E/DX2 analytically  !
 ! D125  D(17,20,22,24)        176.8165         calculate D2E/DX2 analytically  !
 ! D126  D(17,20,22,25)        -60.8716         calculate D2E/DX2 analytically  !
 ! D127  D(21,20,22,23)        -64.3385         calculate D2E/DX2 analytically  !
 ! D128  D(21,20,22,24)         54.2763         calculate D2E/DX2 analytically  !
 ! D129  D(21,20,22,25)        176.5882         calculate D2E/DX2 analytically  !
 --------------------------------------------------------------------------------
 Trust Radius=1.00D-01 FncErr=1.00D-07 GrdErr=1.00D-07 EigMax=2.50D+02 EigMin=1.00D-04
 Number of steps in this run=    240 maximum allowed number of steps=    240.
 Search for a saddle point of order  1.
 GradGradGradGradGradGradGradGradGradGradGradGradGradGradGradGradGradGrad

 Leave Link  103 at Thu Mar 27 17:16:38 2025, MaxMem=  8053063680 cpu:               0.0 elap:               0.0
 (Enter /home/apps/g16_C02_zen2/g16/l202.exe)
                          Input orientation:                          
 ---------------------------------------------------------------------
 Center     Atomic      Atomic             Coordinates (Angstroms)
 Number     Number       Type             X           Y           Z
 ---------------------------------------------------------------------
      1          6           0       -0.430503   -1.594645    0.252362
      2          6           0       -1.840398   -0.986086    0.012126
      3          6           0       -2.061434    0.279777    0.867077
      4          6           0        0.743310   -0.713672    0.312556
      5          6           0       -1.585364    1.531686    0.179965
      6          6           0        0.877329    0.698964    0.264825
      7          6           0       -0.109492    1.715584   -0.169030
      8          1           0       -0.467081   -2.231247    1.175372
      9          1           0       -1.619601    0.155549    1.871424
     10          1           0       -0.263751   -2.362465   -0.555759
     11          1           0       -3.153711    0.391737    1.076588
     12          1           0       -2.317571    1.897227   -0.560446
     13          1           0        0.602606    0.241546    1.462788
     14          6           0        2.348785    1.083038    0.246971
     15          1           0        2.572054    1.938328    0.913461
     16          1           0        2.648765    1.426489   -0.767282
     17          6           0        3.102252   -0.195591    0.647294
     18          1           0        4.034861   -0.315957    0.062267
     19          1           0        3.434126   -0.158991    1.701464
     20          6           0        2.120070   -1.365886    0.407691
     21          1           0        2.171737   -2.101909    1.246973
     22          6           0        2.414713   -2.086068   -0.906061
     23          1           0        3.448358   -2.472763   -0.916023
     24          1           0        1.763994   -2.955218   -1.068777
     25          1           0        2.320004   -1.425522   -1.778448
     26          6           0       -0.767296    2.564140    0.909619
     27          1           0       -0.942470    3.625751    0.715983
     28          1           0       -0.510165    2.436746    1.956351
     29          6           0       -2.021254   -0.708223   -1.482297
     30          1           0       -1.235333   -0.063134   -1.887920
     31          1           0       -2.022436   -1.633670   -2.073117
     32          1           0       -2.982665   -0.213395   -1.681973
     33          6           0       -2.868724   -2.045374    0.443766
     34          1           0       -2.844007   -2.239255    1.521938
     35          1           0       -3.892678   -1.724797    0.200788
     36          1           0       -2.717971   -3.002055   -0.071282
     37          6           0        0.241928    2.352906   -1.487099
     38          1           0        1.094727    3.042680   -1.397037
     39          1           0        0.487425    1.609267   -2.257430
     40          1           0       -0.592743    2.951753   -1.888489
 ---------------------------------------------------------------------
                    Distance matrix (angstroms):
                    1          2          3          4          5
     1  C    0.000000
     2  C    1.554304   0.000000
     3  C    2.559545   1.543440   0.000000
     4  C    1.468868   2.615342   3.026718   0.000000
     5  C    3.333600   2.536215   1.505338   3.237582   0.000000
     6  C    2.640307   3.207692   3.028986   1.419782   2.601054
     7  C    3.352348   3.213701   2.635363   2.619252   1.527683
     8  H    1.121850   2.188508   2.990359   2.124272   4.049822
     9  H    2.664300   2.192959   1.104247   2.961243   2.180816
    10  H    1.127126   2.168577   3.498224   2.118174   4.177603
    11  H    3.470003   2.180887   1.117810   4.122190   2.136148
    12  H    4.051525   2.978091   2.172458   4.116785   1.103610
    13  H    2.429824   3.095120   2.730099   1.501757   2.845577
    14  C    3.859334   4.678213   4.525460   2.410398   3.960215
    15  H    4.683407   5.369761   4.921601   3.276964   4.241167
    16  H    4.432698   5.155636   5.115863   3.062205   4.340068
    17  C    3.820168   5.045603   5.190177   2.438250   5.017532
    18  H    4.648726   5.913565   6.177980   3.324926   5.917311
    19  H    4.369938   5.599871   5.575832   3.078511   5.510774
    20  C    2.565518   3.998253   4.517103   1.526402   4.709355
    21  H    2.831646   4.343632   4.872010   2.200168   5.334541
    22  C    3.111060   4.489877   5.364432   2.482355   5.501655
    23  H    4.145091   5.571589   6.411999   3.452693   6.524964
    24  H    2.900411   4.247055   5.370905   2.823899   5.736712
    25  H    3.423168   4.550627   5.394798   2.713852   5.275638
    26  C    4.223850   3.815907   2.625817   3.658205   1.505852
    27  H    5.265889   4.750866   3.531353   4.672815   2.255158
    28  H    4.377447   4.155155   2.871492   3.768076   2.265112
    29  C    2.515010   1.530757   2.548983   3.296110   2.823173
    30  H    2.752105   2.197298   2.896556   3.029905   2.634790
    31  H    2.818444   2.191059   3.508211   3.766588   3.909845
    32  H    3.487554   2.184444   2.754912   4.255739   2.909394
    33  C    2.486908   1.538135   2.497446   3.851939   3.809457
    34  H    2.802204   2.203905   2.717864   4.081526   4.195840
    35  H    3.465004   2.189324   2.795660   4.746288   3.991092
    36  H    2.705191   2.200278   3.475914   4.167073   4.679822
    37  C    4.365896   4.211012   3.891720   3.590828   2.606243
    38  H    5.152827   5.179928   4.766676   4.142026   3.457300
    39  H    4.172134   4.159988   4.245794   3.473665   3.200526
    40  H    5.027852   4.547038   4.109702   4.479395   2.698220
                    6          7          8          9         10
     6  C    0.000000
     7  C    1.481743   0.000000
     8  H    3.350025   4.184825   0.000000
     9  H    3.018463   2.979529   2.740362   0.000000
    10  H    3.368645   4.099249   1.747963   3.750992   0.000000
    11  H    4.123425   3.545618   3.756033   1.743859   4.313010
    12  H    3.510597   2.249847   4.845789   3.071579   4.728972
    13  H    1.311419   2.311428   2.709528   2.261102   3.406755
    14  C    1.520860   2.572216   4.446967   4.387160   4.397864
    15  H    2.197463   2.900360   5.166265   4.654671   5.356978
    16  H    2.175436   2.837158   5.182802   5.176582   4.783687
    17  C    2.428331   3.825477   4.142813   4.890571   4.180031
    18  H    3.322815   4.621290   5.017452   5.955527   4.800856
    19  H    3.055688   4.423800   4.448644   5.066358   4.860519
    20  C    2.414212   3.846948   2.833996   4.294464   2.757537
    21  H    3.238054   4.667154   2.642956   4.456490   3.041272
    22  C    3.389827   4.622487   3.557833   5.386554   2.715378
    23  H    4.250229   5.546039   4.445551   6.353117   3.731181
    24  H    3.989701   5.112327   3.246234   5.456223   2.174004
    25  H    3.281725   4.284767   4.140300   5.598378   3.008092
    26  C    2.568936   1.521919   4.812119   2.729982   5.164526
    27  H    3.475816   2.264031   5.894189   3.719658   6.159279
    28  H    2.793973   2.279881   4.733069   2.538094   5.422531
    29  C    3.665296   3.354750   3.434860   3.486384   2.585306
    30  H    3.111020   2.717708   3.830755   3.785254   2.829408
    31  H    4.394973   4.301442   3.650878   4.350056   2.434438
    32  H    4.418368   3.776914   4.308632   3.823702   3.644085
    33  C    4.647185   4.704645   2.517476   2.905611   2.808110
    34  H    4.905283   5.096832   2.402072   2.712268   3.315076
    35  H    5.350858   5.126937   3.597363   3.390222   3.761395
    36  H    5.170753   5.391645   2.686037   3.866651   2.582051
    37  C    2.491685   1.505650   5.348449   4.424177   4.832994
    38  H    2.881328   2.172402   6.072136   5.136725   5.636382
    39  H    2.709695   2.174633   5.238775   4.858013   4.385727
    40  H    3.445712   2.172138   6.022169   4.796889   5.488654
                   11         12         13         14         15
    11  H    0.000000
    12  H    2.376028   0.000000
    13  H    3.779104   3.919463   0.000000
    14  C    5.607461   4.805175   2.288113   0.000000
    15  H    5.933206   5.107105   2.656982   1.107059   0.000000
    16  H    6.175702   4.992882   3.250241   1.112050   1.758625
    17  C    6.298120   5.934055   2.665399   1.537161   2.214851
    18  H    7.294193   6.755690   3.748686   2.198671   2.818889
    19  H    6.640284   6.513546   2.869652   2.199125   2.400597
    20  C    5.599056   5.592661   2.449442   2.464827   3.373118
    21  H    5.882831   6.278036   2.828521   3.342938   4.073696
    22  C    6.409193   6.195208   3.783248   3.372990   4.419409
    23  H    7.467474   7.243562   4.596142   3.899402   4.855167
    24  H    6.323648   6.361116   4.239923   4.287270   5.341256
    25  H    6.435466   5.833635   4.029166   3.224287   4.315714
    26  C    3.231438   2.238128   2.752648   3.513222   3.397486
    27  H    3.934269   2.551072   3.794446   4.185418   3.903623
    28  H    3.456064   3.145165   2.510133   3.595567   3.291825
    29  C    3.006703   2.779565   4.057121   5.029535   5.817419
    30  H    3.560251   2.603160   3.833809   4.326358   5.133204
    31  H    3.911866   3.852598   4.786429   5.645430   6.541266
    32  H    2.829329   2.480907   4.790685   5.816006   6.497776
    33  C    2.534007   4.105644   4.280016   6.086714   6.759627
    34  H    2.686331   4.660895   4.247001   6.295098   6.867034
    35  H    2.406827   4.022375   5.066234   6.844116   7.464526
    36  H    3.609058   4.939895   4.888819   6.516233   7.304893
    37  C    4.684980   2.759957   3.645513   3.009719   3.371061
    38  H    5.585297   3.695365   4.033253   2.848793   2.956432
    39  H    5.084872   3.291000   3.965344   3.164428   3.809004
    40  H    4.680162   2.418833   4.472710   4.087159   4.346711
                   16         17         18         19         20
    16  H    0.000000
    17  C    2.199504   0.000000
    18  H    2.376033   1.107476   0.000000
    19  H    3.037309   1.105782   1.752851   0.000000
    20  C    3.075295   1.546506   2.210903   2.203903   0.000000
    21  H    4.090767   2.204432   2.839786   2.361169   1.117494
    22  C    3.523081   2.541560   2.587631   3.398826   1.526899
    23  H    3.983169   2.783750   2.439846   3.493563   2.177555
    24  H    4.480299   3.514452   3.660846   4.275800   2.198346
    25  H    3.043765   2.829994   2.749564   3.867190   2.196072
    26  C    3.971866   4.760077   5.663363   5.068965   4.902440
    27  H    4.464728   5.564813   6.382651   5.869415   5.864353
    28  H    4.291577   4.657508   5.641116   4.728663   4.876115
    29  C    5.184334   5.572097   6.262274   6.340281   4.599472
    30  H    4.308251   5.025883   5.625131   5.890392   4.269159
    31  H    5.734971   5.977553   6.556453   6.796779   4.835956
    32  H    5.936235   6.515521   7.231775   7.254365   5.633191
    33  C    6.630472   6.254253   7.127125   6.698221   5.034985
    34  H    6.989188   6.348194   7.290304   6.616244   5.162013
    35  H    7.325178   7.174042   8.052943   7.641062   6.027003
    36  H    6.992730   6.501353   7.268679   7.005279   5.129630
    37  C    2.677545   4.385422   4.889755   5.163980   4.576796
    38  H    2.328884   4.323869   4.696211   5.032315   4.872764
    39  H    2.631604   4.304910   4.655296   5.242387   4.315082
    40  H    3.753786   5.476217   5.991502   6.227372   5.592299
                   21         22         23         24         25
    21  H    0.000000
    22  C    2.166759   0.000000
    23  H    2.538867   1.103655   0.000000
    24  H    2.501417   1.097877   1.758743   0.000000
    25  H    3.103652   1.098340   1.764560   1.775598   0.000000
    26  C    5.524829   5.919992   6.817265   6.386297   5.716164
    27  H    6.541126   6.821040   7.689908   7.336175   6.510091
    28  H    5.319324   6.099521   6.929915   6.587600   6.072536
    29  C    5.193501   4.680631   5.775026   4.421322   4.410073
    30  H    5.058882   4.287090   5.356105   4.246305   3.809003
    31  H    5.369668   4.610312   5.654426   4.134276   4.357401
    32  H    6.221983   5.765469   6.859262   5.515829   5.440299
    33  C    5.104369   5.453292   6.475895   4.957588   5.678499
    34  H    5.025152   5.794202   6.752188   5.334612   6.182372
    35  H    6.165537   6.413955   7.463078   5.926523   6.527201
    36  H    5.143666   5.280183   6.246387   4.591862   5.548069
    37  C    5.571776   4.976253   5.821890   5.537857   4.322014
    38  H    5.883667   5.318597   6.015901   6.044043   4.648829
    39  H    5.374995   4.381340   5.218186   4.886415   3.577389
    40  H    6.558427   5.948916   6.833854   6.412366   5.258968
                   26         27         28         29         30
    26  C    0.000000
    27  H    1.093251   0.000000
    28  H    1.085354   1.771760   0.000000
    29  C    4.242880   4.977905   4.898828   0.000000
    30  H    3.866245   4.524815   4.642595   1.094688   0.000000
    31  H    5.300349   6.050365   5.923838   1.097963   1.766469
    32  H    4.397603   4.965041   5.135553   1.099562   1.765832
    33  C    5.087302   5.995516   5.285841   2.493170   3.469006
    34  H    5.268801   6.218014   5.244094   3.470794   4.353213
    35  H    5.354011   6.131681   5.642857   2.714484   3.766339
    36  H    5.979116   6.906519   6.210174   2.781734   3.759740
    37  C    2.609101   2.806511   3.525623   3.806905   2.860106
    38  H    3.002797   2.992490   3.766702   4.877077   3.913595
    39  H    3.537839   3.866781   4.408612   3.502151   2.429271
    40  H    2.830216   2.712906   3.880057   3.949818   3.082607
                   31         32         33         34         35
    31  H    0.000000
    32  H    1.758469   0.000000
    33  C    2.687081   2.808540   0.000000
    34  H    3.737129   3.793202   1.095744   0.000000
    35  H    2.945633   2.580164   1.100132   1.763467   0.000000
    36  H    2.522616   3.231256   1.096923   1.770903   1.756515
    37  C    4.622072   4.125758   5.722697   6.298035   6.047445
    38  H    5.660569   5.225738   6.707145   7.206447   7.082096
    39  H    4.104877   3.961663   5.649478   6.339809   6.028609
    40  H    4.806684   3.971465   5.965801   6.606494   6.093010
                   36         37         38         39         40
    36  H    0.000000
    37  C    6.280219   0.000000
    38  H    7.268639   1.100530   0.000000
    39  H    6.026450   1.098489   1.778697   0.000000
    40  H    6.577740   1.102909   1.759928   1.762143   0.000000
 Stoichiometry    C15H25(1+)
 Framework group  C1[X(C15H25)]
 Deg. of freedom   114
 Full point group                 C1      NOp   1
 Largest Abelian subgroup         C1      NOp   1
 Largest concise Abelian subgroup C1      NOp   1
                         Standard orientation:                         
 ---------------------------------------------------------------------
 Center     Atomic      Atomic             Coordinates (Angstroms)
 Number     Number       Type             X           Y           Z
 ---------------------------------------------------------------------
      1          6           0        0.430503   -1.594645   -0.252362
      2          6           0        1.840398   -0.986086   -0.012126
      3          6           0        2.061434    0.279777   -0.867077
      4          6           0       -0.743310   -0.713672   -0.312556
      5          6           0        1.585364    1.531686   -0.179965
      6          6           0       -0.877329    0.698964   -0.264825
      7          6           0        0.109492    1.715584    0.169030
      8          1           0        0.467081   -2.231247   -1.175372
      9          1           0        1.619601    0.155549   -1.871424
     10          1           0        0.263751   -2.362465    0.555759
     11          1           0        3.153711    0.391737   -1.076588
     12          1           0        2.317571    1.897227    0.560446
     13          1           0       -0.602606    0.241546   -1.462788
     14          6           0       -2.348785    1.083038   -0.246971
     15          1           0       -2.572054    1.938328   -0.913461
     16          1           0       -2.648765    1.426489    0.767282
     17          6           0       -3.102252   -0.195591   -0.647294
     18          1           0       -4.034861   -0.315957   -0.062267
     19          1           0       -3.434126   -0.158991   -1.701464
     20          6           0       -2.120070   -1.365886   -0.407691
     21          1           0       -2.171737   -2.101909   -1.246973
     22          6           0       -2.414713   -2.086068    0.906061
     23          1           0       -3.448358   -2.472763    0.916023
     24          1           0       -1.763994   -2.955218    1.068777
     25          1           0       -2.320004   -1.425522    1.778448
     26          6           0        0.767296    2.564140   -0.909619
     27          1           0        0.942470    3.625751   -0.715983
     28          1           0        0.510165    2.436746   -1.956351
     29          6           0        2.021254   -0.708223    1.482297
     30          1           0        1.235333   -0.063134    1.887920
     31          1           0        2.022436   -1.633670    2.073117
     32          1           0        2.982665   -0.213395    1.681973
     33          6           0        2.868724   -2.045374   -0.443766
     34          1           0        2.844007   -2.239255   -1.521938
     35          1           0        3.892678   -1.724797   -0.200788
     36          1           0        2.717971   -3.002055    0.071282
     37          6           0       -0.241928    2.352906    1.487099
     38          1           0       -1.094727    3.042680    1.397037
     39          1           0       -0.487425    1.609267    2.257430
     40          1           0        0.592743    2.951753    1.888489
 ---------------------------------------------------------------------
 Rotational constants (GHZ):           0.7722797           0.5747742           0.4053801
 Leave Link  202 at Thu Mar 27 17:16:38 2025, MaxMem=  8053063680 cpu:               0.0 elap:               0.0
 (Enter /home/apps/g16_C02_zen2/g16/l301.exe)
 Standard basis: VSTO-6G (5D, 7F)
 Ernie: Thresh=  0.10000D-02 Tol=  0.10000D-05 Strict=F.
 EHB=         0.000000000 Number of Hydrogen Bond terms=           0
  NNHCO=     0 NNPyr=     0 NCTC=     0               EPep=         0.000000000
    EC=       541.592835124  ECS=         6.772652288   EG=         1.381844190
   EHC=         0.000918537  EAt=       -73.943797150  AtH=         6.160703796
 EPDDG=         0.000000000  ECC=       549.748250138 EAtT=        80.104500946
  EHyb=         0.000000000
 There are    85 symmetry adapted cartesian basis functions of A   symmetry.
 There are    85 symmetry adapted basis functions of A   symmetry.
    85 basis functions,   510 primitive gaussians,    85 cartesian basis functions
    42 alpha electrons       42 beta electrons
       nuclear repulsion energy       629.8527510839 Hartrees.
 IExCor=    0 DFT=F Ex=HF Corr=None ExCW=0 ScaHFX=  1.000000
 ScaDFX=  1.000000  1.000000  1.000000  1.000000 ScalE2=  1.000000  1.000000
 IRadAn=      5 IRanWt=     -1 IRanGd=            0 ICorTp=0 IEmpDi=251
 Integral buffers will be    131072 words long.
 Regular integral format.
 Two-electron integral symmetry is turned off.
 R6Disp:  PM7 Dispersion energy=       -0.0121790115 Hartrees.
 Nuclear repulsion after empirical dispersion term =      629.8405720725 Hartrees.
 Leave Link  301 at Thu Mar 27 17:16:38 2025, MaxMem=  8053063680 cpu:               0.0 elap:               0.0
 (Enter /home/apps/g16_C02_zen2/g16/l302.exe)
 Do NDO integrals.
 NPDir=0 NMtPBC=     1 NCelOv=     1 NCel=       1 NClECP=     1 NCelD=      1
         NCelK=      1 NCelE2=     1 NClLst=     1 CellRange=     0.0.
 One-electron integrals computed using PRISM.
 NBasis=    85 RedAO= F EigKep=  0.00D+00  NBF=    85
 NBsUse=    85 1.00D-04 EigRej=  0.00D+00 NBFU=    85
 Leave Link  302 at Thu Mar 27 17:16:38 2025, MaxMem=  8053063680 cpu:               0.1 elap:               0.0
 (Enter /home/apps/g16_C02_zen2/g16/l303.exe)
 DipDrv:  MaxL=1.
 Leave Link  303 at Thu Mar 27 17:16:38 2025, MaxMem=  8053063680 cpu:               0.0 elap:               0.0
 (Enter /home/apps/g16_C02_zen2/g16/l401.exe)
 Simple Huckel Guess.
 JPrj=0 DoOrth=F DoCkMO=F.
 Leave Link  401 at Thu Mar 27 17:16:38 2025, MaxMem=  8053063680 cpu:               0.0 elap:               0.0
 (Enter /home/apps/g16_C02_zen2/g16/l502.exe)
 Keep J ints in memory in canonical form, NReq=876540.
 FoFCou: FMM=F IPFlag=           0 FMFlag=           0 FMFlg1=           0
         NFxFlg=           0 DoJE=F BraDBF=F KetDBF=F FulRan=T
         wScrn=  0.000000 ICntrl=       600 IOpCl=  2 I1Cent=           0 NGrid=           0
         NMat0=    1 NMatS0=    175 NMatT0=    0 NMatD0=    1 NMtDS0=    0 NMtDT0=    0
 Symmetry not used in FoFCou.
 Two-electron integral symmetry not used.
 Closed shell SCF:
 Using DIIS extrapolation, IDIIS=  1040.
 Overlap will be assumed to be unity.
 NGot=  8053063680 LenX=  8052971523 LenY=  8052963857
 Requested convergence on RMS density matrix=1.00D-08 within 128 cycles.
 Requested convergence on MAX density matrix=1.00D-06.
 Requested convergence on             energy=1.00D-06.
 No special actions if energy rises.

 Cycle   1  Pass 1  IDiag  1:
 E= 0.609271899841360    
 DIIS: error= 2.28D-02 at cycle   1 NSaved=   1.
 NSaved= 1 IEnMin= 1 EnMin= 0.609271899841360     IErMin= 1 ErrMin= 2.28D-02
 ErrMax= 2.28D-02  0.00D+00 EMaxC= 1.00D-01 BMatC= 1.08D-01 BMatP= 1.08D-01
 IDIUse=3 WtCom= 7.72D-01 WtEn= 2.28D-01
 Coeff-Com:  0.100D+01
 Coeff-En:   0.100D+01
 Coeff:      0.100D+01
 GapD=    2.000 DampG=2.000 DampE=0.500 DampFc=1.0000 IDamp=-1.
 RMSDP=6.69D-03 MaxDP=7.98D-02              OVMax= 0.00D+00

 Cycle   2  Pass 1  IDiag  1:
 E= 0.299098252265139     Delta-E=       -0.310173647576 Rises=F Damp=F
 DIIS: error= 6.04D-03 at cycle   2 NSaved=   2.
 NSaved= 2 IEnMin= 2 EnMin= 0.299098252265139     IErMin= 2 ErrMin= 6.04D-03
 ErrMax= 6.04D-03  0.00D+00 EMaxC= 1.00D-01 BMatC= 6.39D-03 BMatP= 1.08D-01
 IDIUse=3 WtCom= 9.40D-01 WtEn= 6.04D-02
 Coeff-Com: -0.249D+00 0.125D+01
 Coeff-En:   0.000D+00 0.100D+01
 Coeff:     -0.234D+00 0.123D+01
 RMSDP=2.06D-03 MaxDP=2.31D-02 DE=-3.10D-01 OVMax= 0.00D+00

 Cycle   3  Pass 1  IDiag  3:
 E= 0.276185280394088     Delta-E=       -0.022912971871 Rises=F Damp=F
 DIIS: error= 1.91D-03 at cycle   3 NSaved=   3.
 NSaved= 3 IEnMin= 3 EnMin= 0.276185280394088     IErMin= 3 ErrMin= 1.91D-03
 ErrMax= 1.91D-03  0.00D+00 EMaxC= 1.00D-01 BMatC= 3.65D-04 BMatP= 6.39D-03
 IDIUse=3 WtCom= 9.81D-01 WtEn= 1.91D-02
 Coeff-Com:  0.706D-01-0.471D+00 0.140D+01
 Coeff-En:   0.000D+00 0.000D+00 0.100D+01
 Coeff:      0.693D-01-0.462D+00 0.139D+01
 Gap=     0.328 Goal=   None    Shift=    0.000
 RMSDP=6.94D-04 MaxDP=1.11D-02 DE=-2.29D-02 OVMax= 6.38D-03

 Cycle   4  Pass 1  IDiag  3:
 E= 0.274197101161008     Delta-E=       -0.001988179233 Rises=F Damp=F
 DIIS: error= 7.20D-04 at cycle   4 NSaved=   4.
 NSaved= 4 IEnMin= 4 EnMin= 0.274197101161008     IErMin= 4 ErrMin= 7.20D-04
 ErrMax= 7.20D-04  0.00D+00 EMaxC= 1.00D-01 BMatC= 3.97D-05 BMatP= 3.65D-04
 IDIUse=3 WtCom= 9.93D-01 WtEn= 7.20D-03
 Coeff-Com: -0.237D-01 0.192D+00-0.855D+00 0.169D+01
 Coeff-En:   0.000D+00 0.000D+00 0.000D+00 0.100D+01
 Coeff:     -0.236D-01 0.191D+00-0.849D+00 0.168D+01
 Gap=     0.330 Goal=   None    Shift=    0.000
 RMSDP=3.12D-04 MaxDP=5.40D-03 DE=-1.99D-03 OVMax= 3.98D-03

 Cycle   5  Pass 1  IDiag  3:
 E= 0.273932888386412     Delta-E=       -0.000264212775 Rises=F Damp=F
 DIIS: error= 2.10D-04 at cycle   5 NSaved=   5.
 NSaved= 5 IEnMin= 5 EnMin= 0.273932888386412     IErMin= 5 ErrMin= 2.10D-04
 ErrMax= 2.10D-04  0.00D+00 EMaxC= 1.00D-01 BMatC= 2.33D-06 BMatP= 3.97D-05
 IDIUse=3 WtCom= 9.98D-01 WtEn= 2.10D-03
 Coeff-Com:  0.129D-01-0.110D+00 0.530D+00-0.120D+01 0.177D+01
 Coeff-En:   0.000D+00 0.000D+00 0.000D+00 0.000D+00 0.100D+01
 Coeff:      0.129D-01-0.110D+00 0.529D+00-0.120D+01 0.177D+01
 Gap=     0.330 Goal=   None    Shift=    0.000
 RMSDP=8.56D-05 MaxDP=1.64D-03 DE=-2.64D-04 OVMax= 1.29D-03

 Cycle   6  Pass 1  IDiag  3:
 E= 0.273915193711673     Delta-E=       -0.000017694675 Rises=F Damp=F
 DIIS: error= 4.34D-05 at cycle   6 NSaved=   6.
 NSaved= 6 IEnMin= 6 EnMin= 0.273915193711673     IErMin= 6 ErrMin= 4.34D-05
 ErrMax= 4.34D-05  0.00D+00 EMaxC= 1.00D-01 BMatC= 1.36D-07 BMatP= 2.33D-06
 IDIUse=1 WtCom= 1.00D+00 WtEn= 0.00D+00
 Coeff-Com: -0.430D-02 0.379D-01-0.187D+00 0.437D+00-0.806D+00 0.152D+01
 Coeff:     -0.430D-02 0.379D-01-0.187D+00 0.437D+00-0.806D+00 0.152D+01
 Gap=     0.330 Goal=   None    Shift=    0.000
 RMSDP=2.03D-05 MaxDP=4.20D-04 DE=-1.77D-05 OVMax= 2.90D-04

 Cycle   7  Pass 1  IDiag  3:
 E= 0.273914191981362     Delta-E=       -0.000001001730 Rises=F Damp=F
 DIIS: error= 1.19D-05 at cycle   7 NSaved=   7.
 NSaved= 7 IEnMin= 7 EnMin= 0.273914191981362     IErMin= 7 ErrMin= 1.19D-05
 ErrMax= 1.19D-05  0.00D+00 EMaxC= 1.00D-01 BMatC= 9.31D-09 BMatP= 1.36D-07
 IDIUse=1 WtCom= 1.00D+00 WtEn= 0.00D+00
 Coeff-Com:  0.116D-02-0.108D-01 0.546D-01-0.128D+00 0.257D+00-0.695D+00
 Coeff-Com:  0.152D+01
 Coeff:      0.116D-02-0.108D-01 0.546D-01-0.128D+00 0.257D+00-0.695D+00
 Coeff:      0.152D+01
 Gap=     0.330 Goal=   None    Shift=    0.000
 RMSDP=5.17D-06 MaxDP=1.11D-04 DE=-1.00D-06 OVMax= 6.43D-05

 Cycle   8  Pass 1  IDiag  3:
 E= 0.273914126824593     Delta-E=       -0.000000065157 Rises=F Damp=F
 DIIS: error= 2.52D-06 at cycle   8 NSaved=   8.
 NSaved= 8 IEnMin= 8 EnMin= 0.273914126824593     IErMin= 8 ErrMin= 2.52D-06
 ErrMax= 2.52D-06  0.00D+00 EMaxC= 1.00D-01 BMatC= 5.96D-10 BMatP= 9.31D-09
 IDIUse=1 WtCom= 1.00D+00 WtEn= 0.00D+00
 Coeff-Com: -0.193D-03 0.207D-02-0.114D-01 0.275D-01-0.612D-01 0.214D+00
 Coeff-Com: -0.670D+00 0.150D+01
 Coeff:     -0.193D-03 0.207D-02-0.114D-01 0.275D-01-0.612D-01 0.214D+00
 Coeff:     -0.670D+00 0.150D+01
 Gap=     0.330 Goal=   None    Shift=    0.000
 RMSDP=1.24D-06 MaxDP=2.63D-05 DE=-6.52D-08 OVMax= 2.02D-05

 Cycle   9  Pass 1  IDiag  3:
 E= 0.273914122583960     Delta-E=       -0.000000004241 Rises=F Damp=F
 DIIS: error= 9.55D-07 at cycle   9 NSaved=   9.
 NSaved= 9 IEnMin= 9 EnMin= 0.273914122583960     IErMin= 9 ErrMin= 9.55D-07
 ErrMax= 9.55D-07  0.00D+00 EMaxC= 1.00D-01 BMatC= 5.80D-11 BMatP= 5.96D-10
 IDIUse=1 WtCom= 1.00D+00 WtEn= 0.00D+00
 Coeff-Com:  0.592D-04-0.720D-03 0.417D-02-0.103D-01 0.237D-01-0.890D-01
 Coeff-Com:  0.301D+00-0.890D+00 0.166D+01
 Coeff:      0.592D-04-0.720D-03 0.417D-02-0.103D-01 0.237D-01-0.890D-01
 Coeff:      0.301D+00-0.890D+00 0.166D+01
 Gap=     0.330 Goal=   None    Shift=    0.000
 RMSDP=4.42D-07 MaxDP=9.85D-06 DE=-4.24D-09 OVMax= 8.01D-06

 Cycle  10  Pass 1  IDiag  3:
 E= 0.273914122134670     Delta-E=       -0.000000000449 Rises=F Damp=F
 DIIS: error= 2.66D-07 at cycle  10 NSaved=  10.
 NSaved=10 IEnMin=10 EnMin= 0.273914122134670     IErMin=10 ErrMin= 2.66D-07
 ErrMax= 2.66D-07  0.00D+00 EMaxC= 1.00D-01 BMatC= 4.06D-12 BMatP= 5.80D-11
 IDIUse=1 WtCom= 1.00D+00 WtEn= 0.00D+00
 Coeff-Com: -0.204D-04 0.263D-03-0.155D-02 0.385D-02-0.903D-02 0.349D-01
 Coeff-Com: -0.119D+00 0.373D+00-0.896D+00 0.161D+01
 Coeff:     -0.204D-04 0.263D-03-0.155D-02 0.385D-02-0.903D-02 0.349D-01
 Coeff:     -0.119D+00 0.373D+00-0.896D+00 0.161D+01
 Gap=     0.330 Goal=   None    Shift=    0.000
 RMSDP=1.24D-07 MaxDP=3.25D-06 DE=-4.49D-10 OVMax= 2.49D-06

 Cycle  11  Pass 1  IDiag  3:
 E= 0.273914122103406     Delta-E=       -0.000000000031 Rises=F Damp=F
 DIIS: error= 5.80D-08 at cycle  11 NSaved=  11.
 NSaved=11 IEnMin=11 EnMin= 0.273914122103406     IErMin=11 ErrMin= 5.80D-08
 ErrMax= 5.80D-08  0.00D+00 EMaxC= 1.00D-01 BMatC= 2.67D-13 BMatP= 4.06D-12
 IDIUse=1 WtCom= 1.00D+00 WtEn= 0.00D+00
 Coeff-Com:  0.651D-05-0.924D-04 0.565D-03-0.142D-02 0.339D-02-0.134D-01
 Coeff-Com:  0.454D-01-0.144D+00 0.374D+00-0.855D+00 0.159D+01
 Coeff:      0.651D-05-0.924D-04 0.565D-03-0.142D-02 0.339D-02-0.134D-01
 Coeff:      0.454D-01-0.144D+00 0.374D+00-0.855D+00 0.159D+01
 Gap=     0.330 Goal=   None    Shift=    0.000
 RMSDP=3.02D-08 MaxDP=6.60D-07 DE=-3.13D-11 OVMax= 6.40D-07

 Cycle  12  Pass 1  IDiag  3:
 E= 0.273914122092265     Delta-E=       -0.000000000011 Rises=F Damp=F
 DIIS: error= 1.41D-08 at cycle  12 NSaved=  12.
 NSaved=12 IEnMin=12 EnMin= 0.273914122092265     IErMin=12 ErrMin= 1.41D-08
 ErrMax= 1.41D-08  0.00D+00 EMaxC= 1.00D-01 BMatC= 2.08D-14 BMatP= 2.67D-13
 IDIUse=1 WtCom= 1.00D+00 WtEn= 0.00D+00
 Coeff-Com: -0.818D-06 0.182D-04-0.124D-03 0.323D-03-0.827D-03 0.359D-02
 Coeff-Com: -0.125D-01 0.407D-01-0.112D+00 0.289D+00-0.753D+00 0.155D+01
 Coeff:     -0.818D-06 0.182D-04-0.124D-03 0.323D-03-0.827D-03 0.359D-02
 Coeff:     -0.125D-01 0.407D-01-0.112D+00 0.289D+00-0.753D+00 0.155D+01
 Gap=     0.330 Goal=   None    Shift=    0.000
 RMSDP=8.35D-09 MaxDP=1.36D-07 DE=-1.11D-11 OVMax= 1.64D-07

 Cycle  13  Pass 2  IDiag  1:
 SCF Done:  E(RPM7) =  0.273914122092     A.U. after   13 cycles
            NFock= 12  Conv=0.83D-08     -V/T= 1.0022
 KE=-1.266583318966D+02 PE=-1.067604747284D+03 EE= 5.646964212306D+02
 Leave Link  502 at Thu Mar 27 17:16:38 2025, MaxMem=  8053063680 cpu:               0.2 elap:               0.0
 (Enter /home/apps/g16_C02_zen2/g16/l801.exe)
 Range of M.O.s used for correlation:     1    85
 NBasis=    85 NAE=    42 NBE=    42 NFC=     0 NFV=     0
 NROrb=     85 NOA=    42 NOB=    42 NVA=    43 NVB=    43
 Leave Link  801 at Thu Mar 27 17:16:38 2025, MaxMem=  8053063680 cpu:               0.0 elap:               0.0
 (Enter /home/apps/g16_C02_zen2/g16/l1101.exe)
 Using compressed storage, NAtomX=    40.
 Will process     41 centers per pass.
 R6Disp: Adding PM7 dispersion energy 1st derivatives to the gradient.
 Leave Link 1101 at Thu Mar 27 17:16:38 2025, MaxMem=  8053063680 cpu:               0.1 elap:               0.1
 (Enter /home/apps/g16_C02_zen2/g16/l1102.exe)
 Symmetrizing basis deriv contribution to polar:
 IMax=3 JMax=2 DiffMx= 0.00D+00
 Leave Link 1102 at Thu Mar 27 17:16:38 2025, MaxMem=  8053063680 cpu:               0.0 elap:               0.0
 (Enter /home/apps/g16_C02_zen2/g16/l1110.exe)
 Forming Gx(P) for the SCF density, NAtomX=    40.
 Integral derivatives from FoFJK, PRISM(SPDF).
 Do as many integral derivatives as possible in FoFJK.
 G2DrvN: MDV=    8053000548.
 G2DrvN: will do    41 centers at a time, making    1 passes.
 Calling FoFCou, ICntrl=  3107 FMM=F I1Cent=   0 AccDes= 0.00D+00.
 FoFJK:  IHMeth=43 ICntrl=    3107 DoSepK=F KAlg= 0 I1Cent=           0 FoldK=F
 IRaf=         0 NMat=       1 IRICut=       1 DoRegI=T DoRafI=F ISym2E= 0 IDoP0=3 IntGTp=3.
 FoFCou: FMM=F IPFlag=           0 FMFlag=      100000 FMFlg1=           0
         NFxFlg=           0 DoJE=F BraDBF=F KetDBF=F FulRan=T
         wScrn=  0.000000 ICntrl=      3107 IOpCl=  0 I1Cent=           0 NGrid=           0
         NMat0=    1 NMatS0=      1 NMatT0=    0 NMatD0=    1 NMtDS0=    0 NMtDT0=    0
 Symmetry not used in FoFCou.
 End of G2Drv F.D. properties file   721 does not exist.
 End of G2Drv F.D. properties file   722 does not exist.
 End of G2Drv F.D. properties file   788 does not exist.
 Leave Link 1110 at Thu Mar 27 17:16:38 2025, MaxMem=  8053063680 cpu:               0.1 elap:               0.1
 (Enter /home/apps/g16_C02_zen2/g16/l1002.exe)
 Minotr:  Closed shell wavefunction.
          IDoAtm=1111111111111111111111111111111111111111
          Direct CPHF calculation.
          Differentiating once with respect to nuclear coordinates.
          Electric field/nuclear overlap derivatives assumed to be zero.
          Requested convergence is 1.0D-08 RMS, and 1.0D-07 maximum.
          NewPWx=T KeepS1=F KeepF1=F KeepIn=T MapXYZ=F SortEE=F KeepMc=T.
 Keep J ints in memory in canonical form, NReq=880397.
 FoFCou: FMM=F IPFlag=           0 FMFlag=           0 FMFlg1=           0
         NFxFlg=           0 DoJE=F BraDBF=F KetDBF=F FulRan=T
         wScrn=  0.000000 ICntrl=       600 IOpCl=  2 I1Cent=           0 NGrid=           0
         NMat0=    1 NMatS0=    175 NMatT0=    0 NMatD0=    1 NMtDS0=    0 NMtDT0=    0
 Symmetry not used in FoFCou.
 Two-electron integral symmetry not used.
          MDV=    8053063680 using IRadAn=       1.
          Solving linear equations separately, MaxMat=       0.
          There are   123 degrees of freedom in the 1st order CPHF.  IDoFFX=5 NUNeed=   123.
 LinEq1:  Iter=  0 NonCon=   120 RMS=6.99D-03 Max=7.69D-02 NDo=   120
 AX will form   123 AO Fock derivatives at one time.
 LinEq1:  Iter=  1 NonCon=   120 RMS=1.06D-03 Max=1.37D-02 NDo=   123
 LinEq1:  Iter=  2 NonCon=   120 RMS=2.21D-04 Max=2.83D-03 NDo=   123
 LinEq1:  Iter=  3 NonCon=   120 RMS=3.76D-05 Max=3.95D-04 NDo=   123
 LinEq1:  Iter=  4 NonCon=   120 RMS=5.68D-06 Max=6.98D-05 NDo=   123
 LinEq1:  Iter=  5 NonCon=   120 RMS=8.39D-07 Max=8.78D-06 NDo=   123
 LinEq1:  Iter=  6 NonCon=    84 RMS=1.14D-07 Max=1.08D-06 NDo=   123
 LinEq1:  Iter=  7 NonCon=    13 RMS=1.65D-08 Max=1.63D-07 NDo=    84
 LinEq1:  Iter=  8 NonCon=     0 RMS=2.30D-09 Max=2.27D-08 NDo=    13
 Linear equations converged to 1.000D-08 1.000D-07 after     8 iterations.
 End of Minotr F.D. properties file   721 does not exist.
 End of Minotr F.D. properties file   722 does not exist.
 End of Minotr F.D. properties file   788 does not exist.
 Leave Link 1002 at Thu Mar 27 17:16:39 2025, MaxMem=  8053063680 cpu:               0.7 elap:               0.4
 (Enter /home/apps/g16_C02_zen2/g16/l701.exe)
 ... and contract with generalized density number  0.
 Compute integral second derivatives.
 R6Disp: Adding PM7 dispersion energy 2nd derivatives to the Hessian.
 Leave Link  701 at Thu Mar 27 17:16:39 2025, MaxMem=  8053063680 cpu:               0.1 elap:               0.1
 (Enter /home/apps/g16_C02_zen2/g16/l702.exe)
 L702 exits ... SP integral derivatives will be done elsewhere.
 Leave Link  702 at Thu Mar 27 17:16:39 2025, MaxMem=  8053063680 cpu:               0.0 elap:               0.0
 (Enter /home/apps/g16_C02_zen2/g16/l703.exe)
 Integral derivatives from FoFJK, PRISM(SPDF).
 Compute integral second derivatives, UseDBF=F ICtDFT=           0.
 Calling FoFJK, ICntrl=    100127 FMM=F ISym2X=0 I1Cent= 0 IOpClX= 0 NMat=1 NMatS=1 NMatT=0.
 FoFJK:  IHMeth=43 ICntrl=  100127 DoSepK=F KAlg= 0 I1Cent=           0 FoldK=F
 IRaf=         0 NMat=       1 IRICut=       1 DoRegI=T DoRafI=F ISym2E= 0 IDoP0=3 IntGTp=3.
 FoFCou: FMM=F IPFlag=           0 FMFlag=      100000 FMFlg1=         800
         NFxFlg=           0 DoJE=F BraDBF=F KetDBF=F FulRan=T
         wScrn=  0.000000 ICntrl=    100127 IOpCl=  0 I1Cent=           0 NGrid=           0
         NMat0=    1 NMatS0=      1 NMatT0=    0 NMatD0=    1 NMtDS0=    0 NMtDT0=    0
 Symmetry not used in FoFCou.
 Leave Link  703 at Thu Mar 27 17:16:39 2025, MaxMem=  8053063680 cpu:               0.1 elap:               0.0
 (Enter /home/apps/g16_C02_zen2/g16/l716.exe)
 Dipole        =-1.08007517D+00-5.14856741D-01-6.40074085D-01
 Polarizability= 0.00000000D+00 0.00000000D+00 0.00000000D+00
                 0.00000000D+00 0.00000000D+00 0.00000000D+00
 ***** Axes restored to original set *****
 -------------------------------------------------------------------
 Center     Atomic                   Forces (Hartrees/Bohr)
 Number     Number              X              Y              Z
 -------------------------------------------------------------------
      1        6          -0.000007854   -0.000047628    0.000130505
      2        6           0.000003874   -0.000084693   -0.000052098
      3        6           0.000071256    0.000069194   -0.000067910
      4        6           0.002469010   -0.016681516   -0.019824639
      5        6           0.000026244   -0.000089765    0.000151210
      6        6          -0.000006737    0.000105754    0.000115648
      7        6           0.000068419    0.000103220   -0.000204432
      8        1          -0.000023447    0.000064101   -0.000079247
      9        1           0.000024028    0.000002500    0.000027847
     10        1          -0.000004502    0.000019111   -0.000023373
     11        1          -0.000031767    0.000023208    0.000019210
     12        1          -0.000005144    0.000047566   -0.000046201
     13        1          -0.002448630    0.016433102    0.019854013
     14        6           0.000039666   -0.000001714   -0.000020790
     15        1          -0.000002123    0.000007803    0.000001973
     16        1          -0.000016580    0.000003745   -0.000002152
     17        6          -0.000092130    0.000027900   -0.000043124
     18        1          -0.000006190   -0.000006603   -0.000003626
     19        1           0.000002781   -0.000003979    0.000037325
     20        6          -0.000094016    0.000079956   -0.000040169
     21        1          -0.000009896   -0.000004710    0.000019803
     22        6          -0.000098383    0.000005234   -0.000005360
     23        1          -0.000000498   -0.000013547   -0.000002201
     24        1           0.000011093    0.000025892   -0.000000137
     25        1          -0.000009836    0.000016379   -0.000025988
     26        6          -0.000018817    0.000062014    0.000017509
     27        1          -0.000001758   -0.000020618    0.000004570
     28        1          -0.000007474   -0.000010786    0.000001049
     29        6           0.000023717   -0.000065598   -0.000024012
     30        1           0.000005991    0.000007169    0.000005165
     31        1           0.000018901    0.000004990    0.000021430
     32        1           0.000008354    0.000000495   -0.000003450
     33        6           0.000082620    0.000009551   -0.000007200
     34        1           0.000014531   -0.000005122   -0.000001790
     35        1          -0.000002407   -0.000007294    0.000002083
     36        1           0.000015153    0.000003685    0.000006426
     37        6          -0.000021431   -0.000023348    0.000032618
     38        1           0.000014538   -0.000022941    0.000019150
     39        1          -0.000001306   -0.000000896    0.000000750
     40        1           0.000010749   -0.000031811    0.000009614
 -------------------------------------------------------------------
 Cartesian Forces:  Max     0.019854013 RMS     0.003351435
 FormGI is forming the generalized inverse of G from B-inverse, IUseBI=4.
 Leave Link  716 at Thu Mar 27 17:16:39 2025, MaxMem=  8053063680 cpu:               0.1 elap:               0.2
 (Enter /home/apps/g16_C02_zen2/g16/l103.exe)

 GradGradGradGradGradGradGradGradGradGradGradGradGradGradGradGradGradGrad
 Berny optimization.
 Red2BG is reusing G-inverse.
 Internal  Forces:  Max     0.012938912 RMS     0.001984986
 Search for a saddle point.
 Step number   1 out of a maximum of  240
 All quantities printed in internal units (Hartrees-Bohrs-Radians)
 Swapping is turned off.
 Second derivative matrix not updated -- analytic derivatives used.
 ITU=  0
     Eigenvalues ---   -0.01529   0.00094   0.00101   0.00128   0.00153
     Eigenvalues ---    0.00190   0.00248   0.00470   0.00642   0.00934
     Eigenvalues ---    0.01357   0.01678   0.01892   0.02047   0.02242
     Eigenvalues ---    0.02822   0.02956   0.02968   0.03080   0.03119
     Eigenvalues ---    0.03207   0.03231   0.03393   0.03637   0.03700
     Eigenvalues ---    0.03774   0.03779   0.03845   0.03852   0.03877
     Eigenvalues ---    0.03895   0.03922   0.03940   0.04096   0.04272
     Eigenvalues ---    0.04489   0.04910   0.04957   0.05035   0.05066
     Eigenvalues ---    0.05224   0.06039   0.06174   0.06512   0.06720
     Eigenvalues ---    0.07177   0.07525   0.07988   0.08681   0.08924
     Eigenvalues ---    0.09366   0.09561   0.10828   0.10935   0.10966
     Eigenvalues ---    0.11271   0.11349   0.11471   0.11857   0.12850
     Eigenvalues ---    0.12988   0.13057   0.13159   0.13195   0.13279
     Eigenvalues ---    0.13540   0.13696   0.13777   0.14005   0.15554
     Eigenvalues ---    0.15718   0.16971   0.19143   0.19294   0.20385
     Eigenvalues ---    0.22859   0.23922   0.24078   0.24231   0.24521
     Eigenvalues ---    0.24841   0.24991   0.25179   0.25302   0.25452
     Eigenvalues ---    0.25493   0.25497   0.25519   0.25577   0.25621
     Eigenvalues ---    0.25638   0.25690   0.25743   0.26189   0.26926
     Eigenvalues ---    0.27027   0.27325   0.27552   0.27893   0.28734
     Eigenvalues ---    0.30487   0.30726   0.31372   0.32061   0.34515
     Eigenvalues ---    0.35543   0.36061   0.37813   0.39017   0.41265
     Eigenvalues ---    0.41940   0.44807   0.45813   0.52077
 Eigenvectors required to have negative eigenvalues:
                          R17       A28       D52       D87       D89
   1                   -0.38935   0.33326  -0.27564   0.21858   0.21277
                          D88       D72       D74       D73       D76
   1                    0.20928   0.20614   0.19921   0.19430  -0.17670
 RFO step:  Lambda0=8.682520152D-03 Lambda=-5.57028070D-03.
 Linear search not attempted -- option 19 set.
 Maximum step size (   0.100) exceeded in Quadratic search.
    -- Step size scaled by   0.320
 Iteration  1 RMS(Cart)=  0.01476539 RMS(Int)=  0.00016737
 Iteration  2 RMS(Cart)=  0.00029398 RMS(Int)=  0.00010651
 Iteration  3 RMS(Cart)=  0.00000004 RMS(Int)=  0.00010651
 ITry= 1 IFail=0 DXMaxC= 6.61D-02 DCOld= 1.00D+10 DXMaxT= 1.00D-01 DXLimC= 3.00D+00 Rises=F
 Variable       Old X    -DE/DX   Delta X   Delta X   Delta X     New X
                                 (Linear)    (Quad)   (Total)
    R1        2.93721   0.00015   0.00000  -0.00166  -0.00167   2.93554
    R2        2.77576  -0.00098   0.00000   0.00656   0.00655   2.78230
    R3        2.11999  -0.00010   0.00000  -0.00199  -0.00199   2.11800
    R4        2.12996   0.00000   0.00000  -0.00230  -0.00230   2.12766
    R5        2.91668   0.00192   0.00000   0.00116   0.00118   2.91786
    R6        2.89271  -0.00002   0.00000   0.00008   0.00008   2.89279
    R7        2.90665  -0.00007   0.00000   0.00016   0.00016   2.90681
    R8        2.84468   0.00050   0.00000   0.00003   0.00004   2.84472
    R9        2.08672   0.00003   0.00000  -0.00001  -0.00001   2.08672
   R10        2.11235   0.00004   0.00000   0.00016   0.00016   2.11252
   R11        2.68300   0.01294   0.00000  -0.00624  -0.00615   2.67685
   R12        2.88448  -0.00097   0.00000   0.00490   0.00488   2.88936
   R13        2.88690  -0.00038   0.00000   0.00024   0.00021   2.88712
   R14        2.08552   0.00005   0.00000   0.00052   0.00052   2.08605
   R15        2.84565   0.00079   0.00000  -0.00027  -0.00025   2.84540
   R16        2.80009  -0.00060   0.00000  -0.00589  -0.00589   2.79420
   R17        2.47822   0.01292   0.00000   0.08592   0.08592   2.56414
   R18        2.87401  -0.00013   0.00000  -0.00712  -0.00702   2.86699
   R19        2.87601  -0.00054   0.00000   0.00033   0.00035   2.87636
   R20        2.84527  -0.00009   0.00000   0.00097   0.00097   2.84624
   R21        2.09204   0.00001   0.00000   0.00047   0.00047   2.09251
   R22        2.10147  -0.00000   0.00000   0.00207   0.00207   2.10354
   R23        2.90481   0.00068   0.00000   0.00018   0.00011   2.90492
   R24        2.09283  -0.00000   0.00000   0.00023   0.00023   2.09306
   R25        2.08963   0.00004   0.00000  -0.00028  -0.00028   2.08935
   R26        2.92247   0.00130   0.00000   0.00055   0.00045   2.92292
   R27        2.11176   0.00002   0.00000  -0.00057  -0.00057   2.11119
   R28        2.88542  -0.00001   0.00000  -0.00146  -0.00146   2.88396
   R29        2.08561   0.00000   0.00000  -0.00060  -0.00060   2.08500
   R30        2.07469  -0.00003   0.00000   0.00027   0.00027   2.07496
   R31        2.07556   0.00003   0.00000  -0.00026  -0.00026   2.07530
   R32        2.06595  -0.00002   0.00000   0.00046   0.00046   2.06641
   R33        2.05102   0.00000   0.00000  -0.00004  -0.00004   2.05098
   R34        2.06866   0.00001   0.00000  -0.00034  -0.00034   2.06832
   R35        2.07485  -0.00002   0.00000   0.00028   0.00028   2.07513
   R36        2.07787  -0.00001   0.00000  -0.00040  -0.00040   2.07747
   R37        2.07066  -0.00000   0.00000  -0.00003  -0.00003   2.07063
   R38        2.07895  -0.00000   0.00000  -0.00037  -0.00037   2.07858
   R39        2.07288  -0.00000   0.00000   0.00019   0.00019   2.07308
   R40        2.07970  -0.00000   0.00000  -0.00017  -0.00017   2.07953
   R41        2.07584  -0.00000   0.00000   0.00048   0.00048   2.07633
   R42        2.08420  -0.00003   0.00000   0.00021   0.00021   2.08441
    A1        2.09023   0.00014   0.00000  -0.00501  -0.00524   2.08499
    A2        1.89628  -0.00049   0.00000   0.00048   0.00056   1.89684
    A3        1.86513   0.00038   0.00000   0.00220   0.00223   1.86736
    A4        1.90994  -0.00017   0.00000  -0.00162  -0.00156   1.90838
    A5        1.89624   0.00011   0.00000  -0.00033  -0.00025   1.89598
    A6        1.78049   0.00002   0.00000   0.00622   0.00619   1.78667
    A7        1.94487   0.00076   0.00000  -0.00137  -0.00139   1.94347
    A8        1.90618  -0.00001   0.00000   0.00192   0.00191   1.90809
    A9        1.86860  -0.00059   0.00000   0.00037   0.00040   1.86901
   A10        1.95517  -0.00039   0.00000  -0.00009  -0.00009   1.95508
   A11        1.88982  -0.00007   0.00000  -0.00013  -0.00012   1.88970
   A12        1.89651   0.00028   0.00000  -0.00070  -0.00071   1.89580
   A13        1.96487  -0.00037   0.00000   0.00067   0.00055   1.96541
[...]
 66,0.00002098,0.00009011,0.00000968,-0.00002025,0.00002265,0.00000753,
 0.00000050,0.00001274,0.00007008,-0.00001183,-0.00001314,-0.00001955,-
 0.00000049,-0.00002813,-0.00000612,0.00033388,-0.00046212,0.00002779,-
 0.00007169,-0.00001888,-0.00002494,-0.00026798,-0.00009207,0.00081493,
 -0.00001131,-0.00021138,0.00018358,0.01887798,-0.16788362,-0.07390929,
 0.00035765,0.00226690,-0.00574596,0.01067298,-0.01078400,-0.00609938,-
 0.01655597,0.21198183,-0.00043675,-0.00013520,-0.00060211,-0.00049557,
 0.00313489,0.00654875,0.00052222,0.00069946,-0.00026959,0.00001901,0.0
 0008144,-0.00006468,-0.00000796,0.00014308,0.00007350,-0.00004380,-0.0
 0008543,0.00007383,0.00001405,-0.00002833,0.00001030,-0.00062435,-0.00
 020949,0.00015997,-0.00002033,-0.00008021,-0.00000461,0.00024381,0.000
 13872,0.00036121,0.00005845,-0.00006149,0.00002382,0.00003726,0.000002
 73,0.00004947,-0.00004636,0.00000853,0.00001247,0.00004746,0.00001141,
 -0.00002238,-0.00001063,0.00000710,0.00001583,-0.00001309,-0.00000481,
 0.00001051,0.00002472,-0.00000616,-0.00002171,-0.00001322,0.00000416,0
 .00000375,-0.00000935,-0.00000004,0.00001077,0.00000028,0.00002653,-0.
 00000621,-0.00001975,-0.00000751,0.00001063,-0.00001113,-0.00003977,-0
 .00003741,-0.00000288,0.00001242,0.00000429,0.00002089,0.00003108,0.00
 002917,0.00000987,0.00000683,0.00002051,0.00000485,0.00004248,-0.00003
 764,-0.00000446,0.00002266,-0.00001496,-0.00000404,-0.00002644,0.00001
 698,-0.00012462,-0.00001718,-0.00048411,0.00001284,0.00011280,0.000003
 70,0.00038106,0.00060279,-0.00061404,0.00006043,0.00028761,0.00000539,
 0.01124913,-0.07512453,-0.08055377,0.00372049,-0.02005744,-0.01987233,
 0.00139057,-0.00042399,0.00528404,-0.01592387,0.09092215,0.08987947,0.
 00087996,0.00045508,0.00061936,-0.00089744,0.00088691,-0.00029416,-0.0
 0098210,0.00014696,0.00176411,-0.00043873,-0.00141089,-0.00432537,-0.0
 1146347,-0.01073279,0.02174019,0.00180558,0.00569476,-0.00762307,-0.06
 398250,-0.01494630,0.02425751,-0.00008617,-0.00013037,0.00001337,-0.00
 015468,-0.00002241,-0.00010272,-0.00004320,-0.00005748,-0.00012896,0.0
 0002214,-0.00017222,-0.00003695,-0.00024693,-0.00048275,-0.00075782,-0
 .00057455,0.00434067,-0.00036235,-0.00114609,0.00174466,-0.00284167,0.
 00004800,-0.00002303,0.00054912,-0.00079459,-0.00016201,0.00063122,-0.
 00003726,0.00013799,-0.00026325,0.00016253,-0.00009571,0.00008371,0.00
 010907,0.00000808,0.00012716,0.00004498,0.00053314,0.00078075,0.000116
 99,-0.00018002,0.00010213,-0.00031109,0.00048623,-0.00000264,0.0000476
 2,-0.00010036,0.00002545,-0.00000980,-0.00018077,-0.00003980,0.0000206
 9,-0.00016205,-0.00005174,-0.00088753,0.00141129,0.00908028,-0.0002929
 3,0.00026231,-0.00010467,-0.00022972,-0.00024236,-0.00031254,0.0000453
 4,-0.00154819,0.00023763,-0.00016299,0.00067482,-0.00014105,-0.0000645
 4,0.00019386,0.00002714,0.00014064,0.00037919,-0.00001269,0.00031307,-
 0.00040028,0.00014894,-0.00006405,0.00005866,-0.00003391,-0.00000849,0
 .00010332,-0.00004317,-0.00007189,0.00006006,-0.00001752,0.40729006,-0
 .00025668,-0.00079880,0.00020916,0.00024035,0.00019285,-0.00036097,-0.
 00146813,0.00067290,0.00092613,0.00051474,0.00061326,0.00125279,-0.007
 52536,-0.00417125,0.01166848,0.00851337,-0.01879011,0.02249513,-0.0186
 8206,-0.08303672,0.05657582,0.00002955,0.00018813,-0.00005858,0.000121
 69,-0.00001868,-0.00012666,-0.00000600,0.00026862,-0.00010049,0.000109
 54,-0.00022529,-0.00001450,0.00057711,-0.00058598,-0.00014215,0.000496
 79,-0.00192446,0.00000013,0.00113906,0.00044200,0.00170244,-0.00007745
 ,-0.00051807,-0.00010358,-0.00004299,-0.00050317,-0.00023736,0.0002519
 5,-0.00004482,0.00013409,-0.00016941,-0.00000445,-0.00004287,-0.000111
 28,-0.00001262,-0.00010898,-0.00005862,-0.00039297,-0.00064581,-0.0000
 9305,0.00012808,-0.00008626,0.00055353,-0.00041858,0.00018773,-0.00009
 754,0.00008725,-0.00004852,-0.00010042,0.00014415,-0.00001816,-0.00016
 415,0.00016735,-0.00004611,0.00260863,0.00892574,-0.01111724,-0.000895
 67,-0.00066193,0.00078586,0.00125233,-0.00053064,-0.00080309,-0.001097
 89,-0.00068084,0.00027061,0.00025865,0.00010861,-0.00018897,0.00017408
 ,0.00015256,0.00005327,0.00029999,-0.00000866,0.00001850,-0.00024465,-
 0.00013931,0.00021085,0.00003646,0.00002773,-0.00006164,0.00011458,0.0
 0001191,-0.00002390,0.00004915,0.00005550,-0.00003088,0.00156694,0.410
 07010,0.00020919,0.00059514,0.00039071,-0.00019730,-0.00008839,-0.0003
 1554,-0.00007661,-0.00010531,0.00015528,-0.00019499,-0.00150235,-0.001
 74787,0.01336078,0.00389292,-0.00792221,-0.01005418,0.02200994,-0.0175
 3550,0.02769182,0.05286323,-0.16635346,0.00000324,-0.00014361,0.000005
 66,-0.00005458,-0.00000211,0.00000836,0.00002397,-0.00011048,-0.000201
 36,-0.00013427,-0.00008422,0.00002885,0.00017544,0.00014974,-0.0003813
 2,-0.00007972,0.00109879,0.00000705,-0.00140620,0.00130113,-0.00038709
 ,0.00022207,-0.00023118,0.00012967,-0.00009844,-0.00005908,-0.00046440
 ,-0.00009633,0.00015905,0.00001536,0.00011726,-0.00004177,-0.00007601,
 0.00005754,-0.00000955,0.00004263,-0.00001336,0.00028063,0.00022182,0.
 00003420,-0.00008829,0.00005143,-0.00012992,0.00001257,0.00017397,0.00
 003815,-0.00000649,-0.00000981,-0.00000895,-0.00004276,-0.00004664,-0.
 00001738,0.00008165,-0.00018580,0.01251117,0.00276574,-0.03034298,-0.0
 0106588,0.00003343,0.00028175,0.00156500,-0.00034705,-0.00043892,-0.00
 013466,-0.00015769,0.00061660,0.00004448,0.00009486,-0.00032451,0.0000
 3098,0.00006918,-0.00010003,0.00003561,0.00002322,-0.00014757,0.000138
 77,0.00011312,0.00015586,-0.00002620,-0.00002840,0.00001191,-0.0000559
 4,0.00000244,-0.00003911,-0.00000757,-0.00004304,-0.00005618,-0.013361
 63,-0.01828350,0.44155906,-0.00008422,0.00003347,-0.00000781,0.0000801
 8,-0.00008264,0.00000423,-0.00008032,0.00010867,-0.00000796,-0.0001251
 9,-0.00004900,-0.00001574,-0.00016439,-0.00037301,0.00036921,0.0010736
 5,0.00008861,-0.00021274,-0.00913283,-0.01326817,0.01045226,0.00001282
 ,0.00000746,-0.00003073,-0.00001327,-0.00001718,0.00002255,0.00001885,
 -0.00001194,0.00001902,-0.00000132,-0.00003051,0.00002582,-0.00005705,
 -0.00011082,0.00004076,0.00006584,-0.00002014,0.00000510,-0.00048820,-
 0.00031569,0.00021494,0.00004048,0.00020500,-0.00037241,-0.00030957,0.
 00075584,-0.00032050,-0.00009377,-0.00001801,0.00004550,0.00000191,0.0
 0004955,-0.00003251,0.00000360,0.00001143,-0.00003237,0.00005176,-0.00
 002271,0.00006820,-0.00001048,0.00002881,-0.00003028,-0.00010090,-0.00
 010140,0.00001034,0.00000681,0.00002928,0.00000103,0.00003660,0.000034
 73,0.00000541,0.00003338,0.00004865,-0.00001920,-0.00018776,0.00020499
 ,-0.00043068,-0.00006249,0.00004792,0.00035311,0.00011340,0.00005597,0
 .00011386,0.00000329,0.00017685,-0.00002772,-0.00000596,-0.00010095,-0
 .00000063,-0.00000639,-0.00000804,0.00000966,-0.00001752,-0.00006321,-
 0.00000085,-0.00000439,0.00008268,-0.00002229,-0.00000937,-0.00002263,
 0.00000142,0.00000140,-0.00003140,0.00001322,-0.00000742,-0.00001036,0
 .00001446,-0.14545520,-0.08522185,-0.00899639,0.17528600,0.00013209,0.
 00026406,0.00005327,-0.00012649,0.00000916,0.00004451,0.00006869,-0.00
 002266,-0.00002841,0.00003086,-0.00046524,-0.00078697,-0.00004075,-0.0
 0015975,0.00080138,-0.00024162,-0.00163409,0.00175912,-0.01722578,-0.0
 1359989,0.01234355,-0.00001230,-0.00006581,-0.00000047,-0.00004222,-0.
 00000241,0.00002185,0.00000710,-0.00007979,0.00001096,-0.00001747,-0.0
 0000185,0.00002425,-0.00001306,0.00001641,-0.00005476,0.00000354,0.000
 75142,0.00003110,0.00018873,-0.00056342,-0.00004000,0.00012430,0.00024
 708,0.00019649,0.00099446,-0.00033843,0.00041148,-0.00013603,0.0000138
 3,-0.00005917,0.00010960,-0.00000305,-0.00000463,0.00005764,0.00001611
 ,0.00006496,0.00000719,0.00010886,0.00004052,0.00002489,-0.00005108,0.
 00003230,-0.00017970,0.00016861,-0.00003143,0.00006207,-0.00005095,0.0
 0000640,0.00003560,-0.00005075,-0.00000410,0.00004561,-0.00006930,0.00
 000295,-0.00020479,-0.00006364,-0.00028349,0.00009764,0.00038051,-0.00
 016530,0.00015741,0.00003699,-0.00002588,0.00018772,0.00008500,-0.0000
 1840,-0.00007907,-0.00006950,-0.00000881,-0.00004780,-0.00001379,-0.00
 000271,-0.00005992,-0.00002400,-0.00000337,0.00009416,0.00004745,-0.00
 003554,-0.00002053,-0.00001688,0.00001271,-0.00002040,-0.00001324,0.00
 000588,-0.00002327,-0.00002198,0.00000693,-0.08369304,-0.10139990,-0.0
 0844553,0.10905792,0.12256541,-0.00006656,-0.00014763,-0.00005716,0.00
 005712,-0.00003281,0.00000963,0.00027297,-0.00011276,-0.00022085,0.000
 01504,0.00027461,0.00050255,0.00037695,0.00120859,-0.00207859,0.000460
 37,0.00075458,-0.00066954,0.02243786,0.02194376,-0.00893883,0.00000988
 ,0.00004134,-0.00001408,0.00002030,0.00000588,0.00000893,-0.00000898,0
 .00004061,0.00003482,0.00004137,0.00006144,-0.00003868,-0.00010188,0.0
 0007670,0.00009331,0.00001439,-0.00032969,0.00001240,-0.00006905,-0.00
 001843,-0.00046834,-0.00015684,0.00020733,-0.00016859,-0.00036126,0.00
 028455,0.00041107,0.00003709,-0.00005802,-0.00001955,-0.00004275,0.000
 01316,0.00003510,-0.00001779,0.00000285,-0.00001938,0.00000123,-0.0000
 6086,-0.00001364,-0.00000695,0.00002942,-0.00001926,0.00004105,-0.0000
 1347,-0.00005147,-0.00001176,0.00000698,0.00000537,-0.00000143,0.00001
 813,0.00000762,-0.00000720,-0.00002488,0.00005065,-0.00010123,-0.00045
 066,0.00096659,0.00030034,-0.00006207,-0.00020168,-0.00006497,0.000099
 62,0.00000314,-0.00007263,-0.00006378,-0.00004307,0.00002469,0.0000451
 5,0.00003056,0.00000837,0.00001684,0.00002459,0.00002619,0.00000605,0.
 00001369,-0.00004776,-0.00002057,-0.00000187,0.00000500,-0.00000246,-0
 .00001431,0.00002195,-0.00000945,0.00000343,0.00000012,0.00001481,0.00
 001429,-0.01195152,-0.01026116,-0.03763410,0.00827095,0.00225706,0.047
 21511,-0.00020937,-0.00002028,-0.00014801,0.00018682,-0.00018351,0.000
 19069,-0.00006701,0.00004942,-0.00018723,-0.00003134,0.00029541,0.0004
 9833,-0.00011244,0.00014685,-0.00013852,0.00082852,0.00071270,-0.00131
 288,0.00132779,0.00261004,0.01044093,0.00000765,0.00000831,0.00000089,
 0.00000623,-0.00000296,0.00001688,0.00004209,-0.00002334,0.00002644,-0
 .00001995,-0.00000020,0.00004923,-0.00009784,-0.00001973,0.00030944,0.
 00004422,-0.00043605,0.00001433,-0.00029278,-0.00012482,0.00057827,-0.
 00002056,-0.00002131,-0.00018828,-0.00040497,0.00017541,-0.00064165,0.
 00000748,-0.00000607,0.00009378,-0.00005080,0.00002378,-0.00004833,-0.
 00003280,-0.00000295,-0.00004934,0.00002797,-0.00007668,0.00002238,-0.
 00001891,0.00003652,-0.00003234,-0.00000935,-0.00019078,0.00007334,-0.
 00002132,0.00005217,-0.00001260,0.00001413,0.00005038,-0.00000025,0.00
 000396,0.00012146,-0.00005119,-0.00005854,-0.00031617,0.00042656,0.000
 08436,0.00001447,0.00003280,-0.00005704,0.00001753,0.00012035,0.000058
 67,0.00046686,-0.00014835,-0.00024310,-0.00064216,0.00008162,-0.000016
 49,-0.00012555,-0.00002096,-0.00013900,-0.00012412,0.00003808,-0.00003
 545,0.00011113,-0.00009730,0.00001118,-0.00000574,0.00001566,-0.000019
 56,-0.00001907,0.00002004,0.00001279,-0.00003005,0.00000409,-0.0433755
 3,0.02153611,0.02462826,0.00345123,-0.01480519,-0.01160238,0.04406879,
 0.00006116,-0.00001397,-0.00030389,-0.00007581,0.00002834,0.00025146,0
 .00006735,-0.00009308,-0.00007271,-0.00000955,0.00027237,0.00046196,0.
 00023800,0.00015419,-0.00008278,-0.00017242,0.00054672,0.00069988,-0.0
 0112599,0.00763515,0.00578995,-0.00001940,-0.00001601,0.00003715,-0.00
 001161,0.00000230,0.00001569,-0.00002933,-0.00007869,0.00013967,-0.000
 02215,0.00002711,0.00002756,0.00000162,0.00010193,-0.00002928,-0.00005
 234,-0.00017021,0.00000182,-0.00004150,-0.00030419,-0.00004267,0.00000
 180,0.00010447,-0.00000839,0.00003706,0.00027711,0.00000744,-0.0000442
 0,-0.00001515,-0.00006326,0.00002314,0.00001103,0.00003784,0.00002417,
 0.00000078,0.00003331,0.00000965,0.00000022,-0.00005273,0.00000473,-0.
 00001652,0.00002758,-0.00013034,0.00016068,-0.00015736,0.00002037,-0.0
 0003845,0.00001902,0.00003773,-0.00005052,0.00003860,0.00009782,-0.000
 10623,0.00009300,-0.00044328,-0.00066143,0.00143027,0.00011633,-0.0000
 3079,-0.00011660,-0.00020337,0.00005699,0.00006587,0.00034417,-0.00002
 627,-0.00017298,-0.00032655,-0.00010189,0.00004619,-0.00011014,-0.0000
 6958,0.00001731,-0.00011442,0.00003305,0.00002022,0.00006453,0.0000051
 7,-0.00013649,-0.00000508,0.00000584,0.00003206,-0.00003232,0.00000958
 ,0.00002206,-0.00001137,-0.00000962,0.00002440,0.02213955,-0.11704821,
 -0.08704126,-0.00357749,-0.01426338,-0.01354733,-0.02723105,0.13678314
 ,-0.00010046,-0.00039866,-0.00028294,0.00012263,0.00011334,0.00013692,
 -0.00028670,0.00001071,0.00008441,0.00003233,0.00072111,0.00110594,0.0
 0021264,-0.00041036,0.00011002,-0.00026834,0.00144806,-0.00305847,0.01
 044792,-0.00961382,-0.03953862,-0.00000242,0.00009578,-0.00000039,0.00
 004095,-0.00000211,-0.00002734,-0.00002509,0.00009415,0.00013508,0.000
 04893,-0.00000826,-0.00000164,0.00019092,-0.00000697,0.00012464,-0.000
 01874,-0.00097116,0.00001693,0.00001311,-0.00013713,0.00007912,-0.0000
 6780,0.00001427,-0.00010482,-0.00043368,0.00012637,-0.00000266,0.00013
 826,-0.00004713,-0.00002569,-0.00008674,0.00001822,0.00005163,-0.00003
 558,-0.00000342,-0.00001899,-0.00002921,-0.00013036,-0.00011339,-0.000
 01964,0.00005168,-0.00003027,0.00012495,-0.00003366,-0.00013539,-0.000
 04696,0.00000806,0.00001893,0.00000203,0.00003299,0.00004283,-0.000005
 16,-0.00002957,0.00012972,0.00058905,0.00112453,-0.00191072,-0.0001442
 4,-0.00001172,-0.00000249,0.00025621,-0.00012019,-0.00022447,0.0000219
 3,-0.00005403,-0.00036183,0.00017523,0.00022378,0.00025489,-0.00001984
 ,-0.00001570,0.00008866,-0.00000376,0.00001927,0.00008909,-0.00008017,
 -0.00008614,-0.00008396,0.00001756,0.00001931,0.00000653,0.00002003,0.
 00001328,0.00001907,0.00001002,0.00002913,0.00003005,0.02338754,-0.083
 07362,-0.12550154,-0.00265903,-0.00923998,-0.00168813,-0.03339421,0.10
 161120,0.16537758,-0.00019599,-0.00009327,-0.00016052,0.00022384,-0.00
 013245,0.00009686,-0.00032051,0.00011748,-0.00008018,0.00006620,0.0004
 0451,0.00077260,0.00011869,-0.00061676,0.00029354,-0.00030082,0.000426
 05,-0.00009900,0.00453237,0.00210732,-0.00354377,0.00000613,0.00001067
 ,0.00003541,0.00004009,0.00000509,-0.00000319,0.00001358,0.00001092,0.
 00001569,0.00004107,-0.00004600,0.00005123,-0.00030738,-0.00047811,0.0
 0072497,0.00005506,-0.00069841,0.00002515,-0.00012341,-0.00009431,0.00
 012319,-0.00001729,0.00005130,-0.00007494,-0.00005609,0.00012721,-0.00
 008511,0.00001721,-0.00004321,-0.00000308,0.00000292,0.00000908,-0.000
 03241,-0.00001821,0.00001400,0.00002330,0.00001063,-0.00007196,-0.0001
 6135,-0.00001993,0.00000202,0.00002058,0.00004362,-0.00004199,-0.00002
 285,0.00002492,0.00001133,0.00000050,-0.00001550,0.00002681,0.00000312
 ,-0.00001259,0.00000611,0.00002517,0.00010858,0.00013087,-0.00015568,0
 .00025193,-0.00006923,0.00014376,-0.00002738,0.00000259,-0.00000200,-0
 .00017717,0.00033780,-0.00009939,0.00012654,-0.00014709,0.00001572,0.0
 0003184,-0.00005088,0.00000389,0.00000416,-0.00016476,0.00004381,-0.00
 010930,0.00006585,-0.00005761,0.00002411,0.00000091,0.00002468,0.00002
 785,-0.00001755,0.00001906,0.00002875,-0.00001937,-0.00000632,-0.13926
 525,0.07586967,-0.04467761,-0.02386271,0.00550188,-0.00775015,-0.00485
 003,0.01050009,0.00187554,0.16387967,0.00000039,0.00015422,-0.00009683
 ,-0.00001446,-0.00011652,0.00014346,0.00020722,-0.00006003,-0.00022555
 ,0.00005030,-0.00007175,0.00003604,-0.00035557,-0.00015466,0.00108594,
 -0.00006975,-0.00039542,0.00107150,0.01024525,-0.01241339,0.01872287,-
 0.00000495,-0.00003858,-0.00000255,-0.00002647,-0.00000183,0.00003398,
 0.00001018,-0.00007658,0.00004577,-0.00007785,0.00004031,0.00004088,-0
 .00067573,0.00010002,0.00031749,0.00006998,-0.00005478,0.00007766,-0.0
 0006708,0.00002017,-0.00022286,0.00002626,0.00007212,0.00006818,0.0001
 4383,0.00000852,0.00008501,-0.00006482,0.00003097,-0.00002547,0.000021
 49,-0.00000467,0.00001710,0.00001841,-0.00000782,-0.00000365,-0.000017
 61,0.00000705,-0.00005165,0.00000237,-0.00000510,-0.00000552,-0.000067
 68,0.00006157,-0.00001877,0.00001073,-0.00002684,-0.00000124,0.0000270
 4,-0.00003171,0.00000605,0.00003744,-0.00002849,0.00001015,-0.00039806
 ,-0.00051793,0.00007377,0.00000942,0.00049007,-0.00038738,0.00011891,0
 .00001171,0.00001467,0.00030929,0.00038435,-0.00009980,-0.00015629,-0.
 00036159,0.00004361,-0.00005600,-0.00008603,-0.00003018,-0.00017628,-0
 .00008301,-0.00000141,0.00008558,0.00010746,-0.00007464,-0.00000813,-0
 .00001719,0.00001407,-0.00005738,-0.00001195,0.00000508,-0.00001230,-0
 .00002982,0.00000859,0.07345819,-0.09034176,0.03131642,-0.00757067,0.0
 0833389,-0.00219371,0.01797925,-0.01310171,-0.00138144,-0.09295426,0.1
 0821665,-0.00001497,-0.00012984,-0.00008347,0.00001315,0.00010279,0.00
 012032,-0.00013102,-0.00009376,0.00009254,-0.00010780,0.00029861,0.000
 08072,0.00048060,0.00084770,-0.00107840,0.00073581,0.00090984,-0.00209
 262,-0.01721116,0.02479628,-0.02342240,-0.00001104,0.00002647,0.000012
 42,-0.00000047,0.00000693,-0.00002084,0.00000252,0.00003310,0.00003449
 ,0.00007593,0.00000978,-0.00000794,0.00085190,0.00029612,-0.00003269,-
 0.00012553,0.00016818,-0.00003918,0.00003231,-0.00022438,0.00014251,-0
 .00006038,0.00007416,-0.00005910,-0.00017729,0.00011520,-0.00001578,0.
 00006757,-0.00004357,0.00000244,-0.00003281,0.00001101,0.00000679,-0.0
 0001735,0.00000687,-0.00000224,0.00003237,0.00000074,0.00011929,0.0000
 0244,0.00000255,-0.00000200,-0.00001060,-0.00000150,-0.00002899,-0.000
 00124,0.00001376,0.00000551,-0.00000635,0.00001215,0.00000125,-0.00000
 322,-0.00000680,0.00003364,0.00006779,0.00007318,-0.00033247,0.0001665
 1,-0.00022365,-0.00072561,-0.00007534,-0.00003479,-0.00014466,-0.00001
 117,0.00001407,-0.00024380,-0.00000177,-0.00005032,0.00014921,0.000004
 01,-0.00002672,0.00003619,0.00000994,-0.00001189,0.00008587,-0.0000452
 5,-0.00008644,-0.00005883,0.00000955,0.00002326,0.00000263,0.00002702,
 0.00001272,0.00001412,0.00000404,0.00001243,0.00000918,-0.04076634,0.0
 2949455,-0.05364460,-0.00684120,0.00111126,0.00291829,0.01039154,-0.00
 912405,0.00521193,0.05267742,-0.04841596,0.07295611\\0.00002256,0.0000
 6050,-0.00000428,-0.00001644,0.00003753,0.00001096,-0.00003581,0.00001
 255,-0.00002653,-0.00004327,0.00003063,-0.00001182,-0.00001582,-0.0000
 2976,-0.00001507,-0.00002014,-0.00002146,-0.00002081,0.00000750,-0.000
 03611,0.00000862,-0.00000029,0.00000020,-0.00000695,-0.00001008,-0.000
 00178,-0.00000442,-0.00000441,0.00000206,0.00000418,0.00000585,-0.0000
 0152,-0.00000379,0.00000137,-0.00000580,0.00000009,-0.00000195,0.00000
 103,-0.00001575,-0.00000900,0.,-0.00000368,0.00000100,0.00000794,-0.00
 000134,0.00000839,-0.00000134,-0.00000042,0.00005780,-0.00003647,-0.00
 000124,0.00001371,-0.00000369,0.00000088,0.00001536,-0.00000688,0.0000
 0237,0.00006918,-0.00002860,0.00001223,0.00001690,-0.00000470,0.000003
 00,0.00008789,-0.00002846,0.00001906,0.00000700,-0.00000002,0.00000144
 ,0.00001464,-0.00000638,0.00000143,0.00001425,-0.00000371,0.00000265,-
 0.00000325,-0.00000344,-0.00002644,0.00000117,0.00000319,0.00000045,0.
 00000179,0.00001094,-0.00000278,-0.00001779,0.00005432,0.00003092,-0.0
 0001073,0.00000646,0.00000960,-0.00001686,-0.00000529,0.00000083,0.000
 00050,-0.00000161,0.00000466,-0.00006223,-0.00001996,-0.00000104,-0.00
 001009,-0.00000640,-0.00000099,0.00000011,-0.00000151,-0.00000054,-0.0
 0000964,-0.00000588,0.00000014,-0.00004869,0.00000763,0.00002775,0.000
 00068,0.00001541,-0.00000044,-0.00001039,0.00000699,0.00000525,-0.0000
 0078,0.00000338,0.00000181\\\@


 "WOULD YOU TELL ME PLEASE, WHICH WAY I OUGHT TO WALK FROM HERE?"
 "THAT DEPENDS A GREAT DEAL ON WHERE YOU WANT TO GO," SAID THE CAT.
 "I DON'T MUCH CARE WHERE -- ", SAID ALICE.
 "THEN IT DOESN'T MATTER WHICH WAY YOU WALK," SAID THE CAT.

                                      -- LEWIS CARROLL
 Job cpu time:       0 days  0 hours  0 minutes  2.3 seconds.
 Elapsed time:       0 days  0 hours  0 minutes  0.9 seconds.
 File lengths (MBytes):  RWF=    114 Int=      0 D2E=      0 Chk=      5 Scr=      1
 Normal termination of Gaussian 16 at Thu Mar 27 17:16:47 2025.
