 Entering Gaussian System, Link 0=g16
 Input=IM5_tsopt_Fopt.com
 Output=IM5_tsopt_Fopt.log
 Initial command:
 /home/apps/g16_C02_zen2/g16/l1.exe "/dev/shm/Gau-1294556.inp" -scrdir="/dev/shm/"
 Default CPUs for threads: 0,1,2,3,4,5,6,7
 Default is to use a total of   8 processors:
                                8 via shared-memory
                                1 via Linda
 Entering Link 1 = /home/apps/g16_C02_zen2/g16/l1.exe PID=   1294557.
  
 Copyright (c) 1988-2021, Gaussian, Inc.  All Rights Reserved.
  
 This is part of the Gaussian(R) 16 program.  It is based on
 the Gaussian(R) 09 system (copyright 2009, Gaussian, Inc.),
 the Gaussian(R) 03 system (copyright 2003, Gaussian, Inc.),
 the Gaussian(R) 98 system (copyright 1998, Gaussian, Inc.),
 the Gaussian(R) 94 system (copyright 1995, Gaussian, Inc.),
 the Gaussian 92(TM) system (copyright 1992, Gaussian, Inc.),
 the Gaussian 90(TM) system (copyright 1990, Gaussian, Inc.),
 the Gaussian 88(TM) system (copyright 1988, Gaussian, Inc.),
 the Gaussian 86(TM) system (copyright 1986, Carnegie Mellon
 University), and the Gaussian 82(TM) system (copyright 1983,
 Carnegie Mellon University). Gaussian is a federally registered
 trademark of Gaussian, Inc.
  
 This software contains proprietary and confidential information,
 including trade secrets, belonging to Gaussian, Inc.
  
 This software is provided under written license and may be
 used, copied, transmitted, or stored only in accord with that
 written license.
  
 The following legend is applicable only to US Government
 contracts under FAR:
  
                    RESTRICTED RIGHTS LEGEND
  
 Use, reproduction and disclosure by the US Government is
 subject to restrictions as set forth in subparagraphs (a)
 and (c) of the Commercial Computer Software - Restricted
 Rights clause in FAR 52.227-19.
  
 Gaussian, Inc.
 340 Quinnipiac St., Bldg. 40, Wallingford CT 06492
  
  
 ---------------------------------------------------------------
 Warning -- This program may not be used in any manner that
 competes with the business of Gaussian, Inc. or will provide
 assistance to any competitor of Gaussian, Inc.  The licensee
 of this program is prohibited from giving any competitor of
 Gaussian, Inc. access to this program.  By using this program,
 the user acknowledges that Gaussian, Inc. is engaged in the
 business of creating and licensing software in the field of
 computational chemistry and represents and warrants to the
 licensee that it is not a competitor of Gaussian, Inc. and that
 it will not use this program in any manner prohibited above.
 ---------------------------------------------------------------
  

 Cite this work as:
 Gaussian 16, Revision C.02,
 M. J. Frisch, G. W. Trucks, H. B. Schlegel, G. E. Scuseria, 
 M. A. Robb, J. R. Cheeseman, G. Scalmani, V. Barone, 
 G. A. Petersson, H. Nakatsuji, X. Li, M. Caricato, A. V. Marenich, 
 J. Bloino, B. G. Janesko, R. Gomperts, B. Mennucci, H. P. Hratchian, 
 J. V. Ortiz, A. F. Izmaylov, J. L. Sonnenberg, D. Williams-Young, 
 F. Ding, F. Lipparini, F. Egidi, J. Goings, B. Peng, A. Petrone, 
 T. Henderson, D. Ranasinghe, V. G. Zakrzewski, J. Gao, N. Rega, 
 G. Zheng, W. Liang, M. Hada, M. Ehara, K. Toyota, R. Fukuda, 
 J. Hasegawa, M. Ishida, T. Nakajima, Y. Honda, O. Kitao, H. Nakai, 
 T. Vreven, K. Throssell, J. A. Montgomery, Jr., J. E. Peralta, 
 F. Ogliaro, M. J. Bearpark, J. J. Heyd, E. N. Brothers, K. N. Kudin, 
 V. N. Staroverov, T. A. Keith, R. Kobayashi, J. Normand, 
 K. Raghavachari, A. P. Rendell, J. C. Burant, S. S. Iyengar, 
 J. Tomasi, M. Cossi, J. M. Millam, M. Klene, C. Adamo, R. Cammi, 
 J. W. Ochterski, R. L. Martin, K. Morokuma, O. Farkas, 
 J. B. Foresman, and D. J. Fox, Gaussian, Inc., Wallingford CT, 2019.
 
 ******************************************
 Gaussian 16:  AS64L-G16RevC.02  7-Dec-2021
                27-Mar-2025 
 ******************************************
 %nosave
 %chk=IM5_tsopt_Fopt.chk
 SetSPE:  set environment variable "OMP_PROC_BIND" = "true"
 SetSPE:  set environment variable "OMP_PLACES" = "{0},{1},{2},{3},{4},{5},{6},{7}"
 -------------------------------------------------------------
 #p PM7 opt=readfc geom=check guess=read freq=noraman pop=none
 -------------------------------------------------------------
 1/10=3,18=20,19=15,26=1,29=2,38=1/1,3;
 2/9=110,12=2,40=1/2;
 3/5=2,14=-4,25=1,41=4200000,71=1,116=-2/1,2,3;
 4/5=1,35=1/1;
 5/5=2,35=1,38=6/2;
 7//1,2,3,16;
 1/18=20,19=15,26=1/3(2);
 2/9=110/2;
 99//99;
 2/9=110/2;
 3/5=2,14=-2,25=1,41=4200000,71=1,135=20/1,2,3;
 4/5=5,16=3,35=1/1;
 5/5=2,35=1,38=5/2;
 7//1,2,3,16;
 1/18=20,19=15,26=1/3(-5);
 2/9=110/2;
 99/9=1/99;
 Leave Link    1 at Thu Mar 27 17:21:38 2025, MaxMem=           0 cpu:               0.0 elap:               0.0
 (Enter /home/apps/g16_C02_zen2/g16/l101.exe)
 -----
 title
 -----
 Structure from the checkpoint file:  "IM5_tsopt_Fopt.chk"
 Charge =  1 Multiplicity = 1
 No Z-Matrix found in chk file; cartesian coordinates used.
  C                                                -0.393321327412     -1.549962029912      0.004832127026
  C                                                -1.842628410653     -1.000306529296     -0.053729200909
  C                                                -2.049640625690      0.241456436006      0.837086139570
  C                                                 0.700419874255     -0.680282487375      0.633936854625
  C                                                -1.565026299783      1.505857889062      0.183000934109
  C                                                 0.910660118118      0.682023771436      0.107786044434
  C                                                -0.084504386121      1.661555540938     -0.234447471906
  H                                                -0.395401441508     -2.512501772013      0.563576191838
  H                                                -1.598780059992      0.079514367876      1.833405186292
  H                                                -0.090396488123     -1.830126033337     -1.030711117573
  H                                                -3.139843398330      0.353837395759      1.055594758047
  H                                                -2.303671140494      1.916108376930     -0.530129159107
  H                                                 0.441665058294     -0.572326967810      1.736503204325
  C                                                 2.343751268563      1.011826352813      0.028157336272
  H                                                 2.596794144424      1.992508489783      0.494723781284
  H                                                 2.673098250683      1.158945578468     -1.034094533139
  C                                                 3.091329405448     -0.166169410024      0.671009103706
  H                                                 4.059857822187     -0.367732883257      0.176639289931
  H                                                 3.343609059180      0.042121334071      1.727317118083
  C                                                 2.117385551555     -1.358078451458      0.547171737970
  H                                                 2.241280677132     -2.065595630418      1.399036943824
  C                                                 2.361741364883     -2.101803045968     -0.760599964780
  H                                                 3.406214551373     -2.446630930875     -0.828466522204
  H                                                 1.745761638549     -3.008227280577     -0.845509382049
  H                                                 2.172218013510     -1.483981448298     -1.643963345681
  C                                                -0.703254086541      2.461803755637      0.936184941362
  H                                                -0.820188289475      3.542345231447      0.799549373962
  H                                                -0.401177591965      2.254211367570      1.961354215293
  C                                                -2.191881216479     -0.680924784563     -1.515764833776
  H                                                -1.476692785036      0.004165297928     -1.978101603434
  H                                                -2.213755171952     -1.592284641415     -2.129478624306
  H                                                -3.188656554506     -0.228313424074     -1.600269189604
  C                                                -2.802442123053     -2.096447215496      0.441391059317
  H                                                -2.656287601243     -2.325410600844      1.502886453690
  H                                                -3.852129319871     -1.799194935534      0.313444306345
  H                                                -2.674482867386     -3.031262106854     -0.119407484542
  C                                                 0.215411828513      2.410090519593     -1.509775217486
  H                                                 1.084887839365      3.077224135754     -1.417708198135
  H                                                 0.388804869502      1.731546104583     -2.358190333877
  H                                                -0.628677845942      3.055115164485     -1.813411926420
 Recover connectivity data from disk.
 ITRead=  0  0  0  0  0  0  0  0  0  0  0  0  0  0  0  0  0  0  0  0
 ITRead=  0  0  0  0  0  0  0  0  0  0  0  0  0  0  0  0  0  0  0  0
 MicOpt= -1 -1 -1 -1 -1 -1 -1 -1 -1 -1 -1 -1 -1 -1 -1 -1 -1 -1 -1 -1
 MicOpt= -1 -1 -1 -1 -1 -1 -1 -1 -1 -1 -1 -1 -1 -1 -1 -1 -1 -1 -1 -1
 NAtoms=     40 NQM=       40 NQMF=       0 NMMI=      0 NMMIF=      0
                NMic=       0 NMicF=      0.
                    Isotopes and Nuclear Properties:
 (Nuclear quadrupole moments (NQMom) in fm**2, nuclear magnetic moments (NMagM)
  in nuclear magnetons)

  Atom         1           2           3           4           5           6           7           8           9          10
 IAtWgt=          12          12          12          12          12          12          12           1           1           1
 AtmWgt=  12.0000000  12.0000000  12.0000000  12.0000000  12.0000000  12.0000000  12.0000000   1.0078250   1.0078250   1.0078250
 NucSpn=           0           0           0           0           0           0           0           1           1           1
 AtZEff=   3.9000000   3.9000000   3.9000000   3.9000000   3.9000000   3.9000000   3.9000000   1.0000000   1.0000000   1.0000000
 NQMom=    0.0000000   0.0000000   0.0000000   0.0000000   0.0000000   0.0000000   0.0000000   0.0000000   0.0000000   0.0000000
 NMagM=    0.0000000   0.0000000   0.0000000   0.0000000   0.0000000   0.0000000   0.0000000   2.7928460   2.7928460   2.7928460
 AtZNuc=   6.0000000   6.0000000   6.0000000   6.0000000   6.0000000   6.0000000   6.0000000   1.0000000   1.0000000   1.0000000

  Atom        11          12          13          14          15          16          17          18          19          20
 IAtWgt=           1           1           1          12           1           1          12           1           1          12
 AtmWgt=   1.0078250   1.0078250   1.0078250  12.0000000   1.0078250   1.0078250  12.0000000   1.0078250   1.0078250  12.0000000
 NucSpn=           1           1           1           0           1           1           0           1           1           0
 AtZEff=   1.0000000   1.0000000   1.0000000   3.9000000   1.0000000   1.0000000   3.9000000   1.0000000   1.0000000   3.9000000
 NQMom=    0.0000000   0.0000000   0.0000000   0.0000000   0.0000000   0.0000000   0.0000000   0.0000000   0.0000000   0.0000000
 NMagM=    2.7928460   2.7928460   2.7928460   0.0000000   2.7928460   2.7928460   0.0000000   2.7928460   2.7928460   0.0000000
 AtZNuc=   1.0000000   1.0000000   1.0000000   6.0000000   1.0000000   1.0000000   6.0000000   1.0000000   1.0000000   6.0000000

  Atom        21          22          23          24          25          26          27          28          29          30
 IAtWgt=           1          12           1           1           1          12           1           1          12           1
 AtmWgt=   1.0078250  12.0000000   1.0078250   1.0078250   1.0078250  12.0000000   1.0078250   1.0078250  12.0000000   1.0078250
 NucSpn=           1           0           1           1           1           0           1           1           0           1
 AtZEff=   1.0000000   3.9000000   1.0000000   1.0000000   1.0000000   3.9000000   1.0000000   1.0000000   3.9000000   1.0000000
 NQMom=    0.0000000   0.0000000   0.0000000   0.0000000   0.0000000   0.0000000   0.0000000   0.0000000   0.0000000   0.0000000
 NMagM=    2.7928460   0.0000000   2.7928460   2.7928460   2.7928460   0.0000000   2.7928460   2.7928460   0.0000000   2.7928460
 AtZNuc=   1.0000000   6.0000000   1.0000000   1.0000000   1.0000000   6.0000000   1.0000000   1.0000000   6.0000000   1.0000000

  Atom        31          32          33          34          35          36          37          38          39          40
 IAtWgt=           1           1          12           1           1           1          12           1           1           1
 AtmWgt=   1.0078250   1.0078250  12.0000000   1.0078250   1.0078250   1.0078250  12.0000000   1.0078250   1.0078250   1.0078250
 NucSpn=           1           1           0           1           1           1           0           1           1           1
 AtZEff=   1.0000000   1.0000000   3.9000000   1.0000000   1.0000000   1.0000000   3.9000000   1.0000000   1.0000000   1.0000000
 NQMom=    0.0000000   0.0000000   0.0000000   0.0000000   0.0000000   0.0000000   0.0000000   0.0000000   0.0000000   0.0000000
 NMagM=    2.7928460   2.7928460   0.0000000   2.7928460   2.7928460   2.7928460   0.0000000   2.7928460   2.7928460   2.7928460
 AtZNuc=   1.0000000   1.0000000   6.0000000   1.0000000   1.0000000   1.0000000   6.0000000   1.0000000   1.0000000   1.0000000
 Leave Link  101 at Thu Mar 27 17:21:38 2025, MaxMem=  8053063680 cpu:               0.2 elap:               0.2
 (Enter /home/apps/g16_C02_zen2/g16/l103.exe)

 GradGradGradGradGradGradGradGradGradGradGradGradGradGradGradGradGradGrad
 Berny optimization.
 Initialization pass.
 No redundant coordinates on chk file, so ReadFC converted to ReadCartesianFC.
 Cartesian force constants read from checkpoint file:
 "IM5_tsopt_Fopt.chk"
 FormGI is forming the generalized inverse of G from B-inverse, IUseBI=4.
                           ----------------------------
                           !    Initial Parameters    !
                           ! (Angstroms and Degrees)  !
 --------------------------                            --------------------------
 ! Name  Definition              Value          Derivative Info.                !
 --------------------------------------------------------------------------------
 ! R1    R(1,2)                  1.5511         D2E/DX2 =    0.2729             !
 ! R2    R(1,4)                  1.5324         D2E/DX2 =    0.3258             !
 ! R3    R(1,8)                  1.113          D2E/DX2 =    0.2321             !
 ! R4    R(1,10)                 1.1147         D2E/DX2 =    0.2175             !
 ! R5    R(2,3)                  1.5422         D2E/DX2 =    0.2851             !
 ! R6    R(2,29)                 1.5367         D2E/DX2 =    0.3459             !
 ! R7    R(2,33)                 1.5388         D2E/DX2 =    0.3435             !
 ! R8    R(3,5)                  1.5038         D2E/DX2 =    0.3293             !
 ! R9    R(3,9)                  1.1055         D2E/DX2 =    0.2624             !
 ! R10   R(3,11)                 1.1175         D2E/DX2 =    0.2578             !
 ! R11   R(4,6)                  1.4754         D2E/DX2 =    0.335              !
 ! R12   R(4,20)                 1.5731         D2E/DX2 =    0.2488             !
 ! R13   R(5,7)                  1.5461         D2E/DX2 =    0.1573             !
 ! R14   R(5,12)                 1.1056         D2E/DX2 =    0.2678             !
 ! R15   R(5,26)                 1.4912         D2E/DX2 =    0.1791             !
 ! R16   R(6,7)                  1.4377         D2E/DX2 =    0.3527             !
 ! R17   R(6,13)                 2.1086         D2E/DX2 =    0.0771             !
 ! R18   R(6,14)                 1.4727         D2E/DX2 =    0.2771             !
 ! R19   R(7,26)                 1.5471         D2E/DX2 =    0.1904             !
 ! R20   R(7,37)                 1.5089         D2E/DX2 =    0.3798             !
 ! R21   R(14,15)                1.1151         D2E/DX2 =    0.2525             !
 ! R22   R(14,16)                1.1218         D2E/DX2 =    0.2489             !
 ! R23   R(14,17)                1.5362         D2E/DX2 =    0.2774             !
 ! R24   R(17,18)                1.1059         D2E/DX2 =    0.2596             !
 ! R25   R(17,19)                1.1058         D2E/DX2 =    0.2571             !
 ! R26   R(17,20)                1.5442         D2E/DX2 =    0.2623             !
 ! R27   R(20,21)                1.1143         D2E/DX2 =    0.2591             !
 ! R28   R(20,22)                1.5242         D2E/DX2 =    0.3626             !
 ! R29   R(22,23)                1.102          D2E/DX2 =    0.2588             !
 ! R30   R(22,24)                1.0992         D2E/DX2 =    0.2599             !
 ! R31   R(22,25)                1.0945         D2E/DX2 =    0.2606             !
 ! R32   R(26,27)                1.0954         D2E/DX2 =    0.2666             !
 ! R33   R(26,28)                1.0887         D2E/DX2 =    0.2686             !
 ! R34   R(29,30)                1.093          D2E/DX2 =    0.2631             !
 ! R35   R(29,31)                1.099          D2E/DX2 =    0.2622             !
 ! R36   R(29,32)                1.098          D2E/DX2 =    0.2599             !
 ! R37   R(33,34)                1.0957         D2E/DX2 =    0.2617             !
 ! R38   R(33,35)                1.0984         D2E/DX2 =    0.2608             !
 ! R39   R(33,36)                1.0976         D2E/DX2 =    0.2623             !
 ! R40   R(37,38)                1.0998         D2E/DX2 =    0.261              !
 ! R41   R(37,39)                1.1001         D2E/DX2 =    0.2609             !
 ! R42   R(37,40)                1.1049         D2E/DX2 =    0.2587             !
 ! A1    A(2,1,4)              118.768          D2E/DX2 =    0.0445             !
 ! A2    A(2,1,8)              108.885          D2E/DX2 =    0.0516             !
 ! A3    A(2,1,10)             107.9325         D2E/DX2 =    0.048              !
 ! A4    A(4,1,8)              106.6214         D2E/DX2 =    0.0467             !
 ! A5    A(4,1,10)             109.2714         D2E/DX2 =    0.0491             !
 ! A6    A(8,1,10)             104.4491         D2E/DX2 =    0.0169             !
 ! A7    A(1,2,3)              112.8882         D2E/DX2 =    0.0231             !
 ! A8    A(1,2,29)             108.7788         D2E/DX2 =    0.026              !
 ! A9    A(1,2,33)             108.5556         D2E/DX2 =    0.0293             !
 ! A10   A(3,2,29)             110.5913         D2E/DX2 =    0.0298             !
 ! A11   A(3,2,33)             107.697          D2E/DX2 =    0.0265             !
 ! A12   A(29,2,33)            108.2043         D2E/DX2 =    0.0281             !
 ! A13   A(2,3,5)              112.4892         D2E/DX2 =    0.0611             !
 ! A14   A(2,3,9)              110.3578         D2E/DX2 =    0.0386             !
 ! A15   A(2,3,11)             108.9569         D2E/DX2 =    0.0385             !
 ! A16   A(5,3,9)              112.5653         D2E/DX2 =    0.039              !
 ! A17   A(5,3,11)             108.3529         D2E/DX2 =    0.0386             !
 ! A18   A(9,3,11)             103.6723         D2E/DX2 =    0.012              !
 ! A19   A(1,4,6)              118.6398         D2E/DX2 =    0.0403             !
 ! A20   A(1,4,20)             112.0684         D2E/DX2 =    0.0476             !
 ! A21   A(6,4,20)             104.466          D2E/DX2 =    0.0349             !
 ! A22   A(3,5,7)              120.7106         D2E/DX2 =    0.0288             !
 ! A23   A(3,5,12)             112.1624         D2E/DX2 =    0.0322             !
 ! A24   A(3,5,26)             120.3674         D2E/DX2 =    0.0367             !
 ! A25   A(7,5,12)             115.3542         D2E/DX2 =    0.028              !
 ! A26   A(12,5,26)            118.2929         D2E/DX2 =    0.0333             !
 ! A27   A(4,6,7)              127.9763         D2E/DX2 =    0.0294             !
 ! A28   A(4,6,13)              31.0836         D2E/DX2 =    0.0327             !
 ! A29   A(4,6,14)             111.39           D2E/DX2 =    0.0409             !
 ! A30   A(7,6,13)             115.7991         D2E/DX2 =    0.0357             !
 ! A31   A(7,6,14)             120.5392         D2E/DX2 =    0.0578             !
 ! A32   A(13,6,14)            113.0432         D2E/DX2 =    0.0285             !
 ! A33   A(5,7,6)              122.0021         D2E/DX2 =    0.0297             !
 ! A34   A(5,7,37)             117.937          D2E/DX2 =    0.0368             !
 ! A35   A(6,7,26)             116.6877         D2E/DX2 =    0.0309             !
 ! A36   A(6,7,37)             113.6787         D2E/DX2 =    0.0469             !
 ! A37   A(26,7,37)            117.5436         D2E/DX2 =    0.0371             !
 ! A38   A(6,14,15)            113.275          D2E/DX2 =    0.0314             !
 ! A39   A(6,14,16)            111.4846         D2E/DX2 =    0.0286             !
 ! A40   A(6,14,17)            106.2128         D2E/DX2 =    0.0548             !
 ! A41   A(15,14,16)           102.3705         D2E/DX2 =    0.0133             !
 ! A42   A(15,14,17)           112.8846         D2E/DX2 =    0.0327             !
 ! A43   A(16,14,17)           110.729          D2E/DX2 =    0.0272             !
 ! A44   A(14,17,18)           112.2647         D2E/DX2 =    0.0316             !
 ! A45   A(14,17,19)           111.4893         D2E/DX2 =    0.0297             !
 ! A46   A(14,17,20)           104.5603         D2E/DX2 =    0.0562             !
 ! A47   A(18,17,19)           105.1615         D2E/DX2 =    0.013              !
 ! A48   A(18,17,20)           112.0754         D2E/DX2 =    0.0318             !
 ! A49   A(19,17,20)           111.462          D2E/DX2 =    0.0292             !
 ! A50   A(4,20,17)            103.3627         D2E/DX2 =    0.0371             !
 ! A51   A(4,20,21)            109.3637         D2E/DX2 =    0.0174             !
 ! A52   A(4,20,22)            113.7013         D2E/DX2 =    0.0392             !
 ! A53   A(17,20,21)           111.0181         D2E/DX2 =    0.0192             !
 ! A54   A(17,20,22)           110.1407         D2E/DX2 =    0.0467             !
 ! A55   A(21,20,22)           109.1658         D2E/DX2 =    0.0228             !
 ! A56   A(20,22,23)           110.9451         D2E/DX2 =    0.0975             !
 ! A57   A(20,22,24)           112.2602         D2E/DX2 =    0.0975             !
 ! A58   A(20,22,25)           112.9109         D2E/DX2 =    0.0968             !
 ! A59   A(23,22,24)           105.5656         D2E/DX2 =    0.0435             !
 ! A60   A(23,22,25)           106.9203         D2E/DX2 =    0.045              !
 ! A61   A(24,22,25)           107.8241         D2E/DX2 =    0.0466             !
 ! A62   A(5,26,27)            120.5078         D2E/DX2 =    0.0303             !
 ! A63   A(5,26,28)            120.9108         D2E/DX2 =    0.0344             !
 ! A64   A(7,26,27)            117.2929         D2E/DX2 =    0.0303             !
 ! A65   A(7,26,28)            120.1911         D2E/DX2 =    0.0315             !
 ! A66   A(27,26,28)           109.5823         D2E/DX2 =    0.0247             !
 ! A67   A(2,29,30)            112.5819         D2E/DX2 =    0.0979             !
 ! A68   A(2,29,31)            111.314          D2E/DX2 =    0.1004             !
 ! A69   A(2,29,32)            111.421          D2E/DX2 =    0.1024             !
 ! A70   A(30,29,31)           107.254          D2E/DX2 =    0.0461             !
 ! A71   A(30,29,32)           107.6435         D2E/DX2 =    0.0464             !
 ! A72   A(31,29,32)           106.3082         D2E/DX2 =    0.0442             !
 ! A73   A(2,33,34)            112.1706         D2E/DX2 =    0.0999             !
 ! A74   A(2,33,35)            111.4575         D2E/DX2 =    0.0991             !
 ! A75   A(2,33,36)            111.6892         D2E/DX2 =    0.0996             !
 ! A76   A(34,33,35)           107.2692         D2E/DX2 =    0.0458             !
 ! A77   A(34,33,36)           107.545          D2E/DX2 =    0.0459             !
 ! A78   A(35,33,36)           106.4016         D2E/DX2 =    0.0444             !
 ! A79   A(7,37,38)            112.7875         D2E/DX2 =    0.0954             !
 ! A80   A(7,37,39)            112.1587         D2E/DX2 =    0.0958             !
 ! A81   A(7,37,40)            111.7182         D2E/DX2 =    0.1045             !
 ! A82   A(38,37,39)           108.3063         D2E/DX2 =    0.0458             !
 ! A83   A(38,37,40)           105.8343         D2E/DX2 =    0.0453             !
 ! A84   A(39,37,40)           105.5781         D2E/DX2 =    0.0451             !
 ! D1    D(4,1,2,3)            -13.4348         D2E/DX2 =    0.0141             !
 ! D2    D(4,1,2,29)           109.7106         D2E/DX2 =    0.0216             !
 ! D3    D(4,1,2,33)          -132.7602         D2E/DX2 =    0.0189             !
 ! D4    D(8,1,2,3)            108.7534         D2E/DX2 =    0.0183             !
 ! D5    D(8,1,2,29)          -128.1011         D2E/DX2 =    0.0189             !
 ! D6    D(8,1,2,33)           -10.572          D2E/DX2 =    0.0169             !
 ! D7    D(10,1,2,3)          -138.4236         D2E/DX2 =    0.0202             !
 ! D8    D(10,1,2,29)          -15.2781         D2E/DX2 =    0.0199             !
 ! D9    D(10,1,2,33)          102.251          D2E/DX2 =    0.0201             !
 ! D10   D(2,1,4,6)            -55.2802         D2E/DX2 =    0.02               !
 ! D11   D(2,1,4,20)          -177.1869         D2E/DX2 =    0.0187             !
 ! D12   D(8,1,4,6)           -178.5952         D2E/DX2 =    0.0263             !
 ! D13   D(8,1,4,20)            59.4981         D2E/DX2 =    0.0216             !
 ! D14   D(10,1,4,6)            69.0568         D2E/DX2 =    0.0215             !
 ! D15   D(10,1,4,20)          -52.8499         D2E/DX2 =    0.0201             !
 ! D16   D(1,2,3,5)             80.8397         D2E/DX2 =    0.0144             !
 ! D17   D(1,2,3,9)            -45.7875         D2E/DX2 =    0.0151             !
 ! D18   D(1,2,3,11)          -158.9928         D2E/DX2 =    0.0157             !
 ! D19   D(29,2,3,5)           -41.2933         D2E/DX2 =    0.0171             !
 ! D20   D(29,2,3,9)          -167.9205         D2E/DX2 =    0.0159             !
 ! D21   D(29,2,3,11)           78.8741         D2E/DX2 =    0.0156             !
 ! D22   D(33,2,3,5)          -159.3396         D2E/DX2 =    0.017              !
 ! D23   D(33,2,3,9)            74.0332         D2E/DX2 =    0.0149             !
 ! D24   D(33,2,3,11)          -39.1721         D2E/DX2 =    0.0159             !
 ! D25   D(1,2,29,30)          -55.3582         D2E/DX2 =    0.0141             !
 ! D26   D(1,2,29,31)           65.1118         D2E/DX2 =    0.0132             !
 ! D27   D(1,2,29,32)         -176.4079         D2E/DX2 =    0.013              !
 ! D28   D(3,2,29,30)           69.1541         D2E/DX2 =    0.0131             !
 ! D29   D(3,2,29,31)         -170.3759         D2E/DX2 =    0.0129             !
 ! D30   D(3,2,29,32)          -51.8956         D2E/DX2 =    0.0126             !
 ! D31   D(33,2,29,30)        -173.1102         D2E/DX2 =    0.0152             !
 ! D32   D(33,2,29,31)         -52.6402         D2E/DX2 =    0.0143             !
 ! D33   D(33,2,29,32)          65.8401         D2E/DX2 =    0.0141             !
 ! D34   D(1,2,33,34)           66.1243         D2E/DX2 =    0.0124             !
 ! D35   D(1,2,33,35)         -173.5706         D2E/DX2 =    0.0134             !
 ! D36   D(1,2,33,36)          -54.6993         D2E/DX2 =    0.0123             !
 ! D37   D(3,2,33,34)          -56.4062         D2E/DX2 =    0.0134             !
 ! D38   D(3,2,33,35)           63.8988         D2E/DX2 =    0.0138             !
 ! D39   D(3,2,33,36)         -177.2298         D2E/DX2 =    0.0135             !
 ! D40   D(29,2,33,34)        -175.9808         D2E/DX2 =    0.0146             !
 ! D41   D(29,2,33,35)         -55.6758         D2E/DX2 =    0.0145             !
 ! D42   D(29,2,33,36)          63.1956         D2E/DX2 =    0.0142             !
 ! D43   D(2,3,5,7)            -59.869          D2E/DX2 =    0.0121             !
 ! D44   D(2,3,5,12)            81.3688         D2E/DX2 =    0.0111             !
 ! D45   D(2,3,5,26)          -132.3431         D2E/DX2 =    0.0207             !
 ! D46   D(9,3,5,7)             65.565          D2E/DX2 =    0.0155             !
 ! D47   D(9,3,5,12)          -153.1973         D2E/DX2 =    0.0117             !
 ! D48   D(9,3,5,26)            -6.9092         D2E/DX2 =    0.0154             !
 ! D49   D(11,3,5,7)           179.6152         D2E/DX2 =    0.0162             !
 ! D50   D(11,3,5,12)          -39.1471         D2E/DX2 =    0.0115             !
 ! D51   D(11,3,5,26)          107.141          D2E/DX2 =    0.0169             !
 ! D52   D(1,4,6,7)             43.7157         D2E/DX2 =    0.0163             !
 ! D53   D(1,4,6,13)           120.6843         D2E/DX2 =    0.0253             !
 ! D54   D(1,4,6,14)          -139.8476         D2E/DX2 =    0.0213             !
 ! D55   D(20,4,6,7)           169.3774         D2E/DX2 =    0.0122             !
 ! D56   D(20,4,6,13)         -113.654          D2E/DX2 =    0.03               !
 ! D57   D(20,4,6,14)          -14.186          D2E/DX2 =    0.0099             !
 ! D58   D(1,4,20,17)          157.712          D2E/DX2 =    0.0229             !
 ! D59   D(1,4,20,21)          -83.9787         D2E/DX2 =    0.0192             !
 ! D60   D(1,4,20,22)           38.3195         D2E/DX2 =    0.0253             !
 ! D61   D(6,4,20,17)           28.0157         D2E/DX2 =    0.0101             !
 ! D62   D(6,4,20,21)          146.3249         D2E/DX2 =    0.0157             !
 ! D63   D(6,4,20,22)          -91.3769         D2E/DX2 =    0.0237             !
 ! D64   D(3,5,7,6)             -6.7948         D2E/DX2 =    0.014              !
 ! D65   D(3,5,7,37)           143.3679         D2E/DX2 =    0.0162             !
 ! D66   D(12,5,7,6)          -146.8807         D2E/DX2 =    0.0157             !
 ! D67   D(12,5,7,37)            3.282          D2E/DX2 =    0.0133             !
 ! D68   D(3,5,26,27)         -142.8646         D2E/DX2 =    0.0196             !
 ! D69   D(3,5,26,28)            0.8628         D2E/DX2 =    0.0189             !
 ! D70   D(12,5,26,27)           1.4207         D2E/DX2 =    0.0154             !
 ! D71   D(12,5,26,28)         145.1482         D2E/DX2 =    0.0179             !
 ! D72   D(4,6,7,5)             12.8187         D2E/DX2 =    0.0089             !
 ! D73   D(4,6,7,26)            79.7278         D2E/DX2 =    0.0154             !
 ! D74   D(4,6,7,37)          -138.4982         D2E/DX2 =    0.0082             !
 ! D75   D(13,6,7,5)           -21.1457         D2E/DX2 =    0.0223             !
 ! D76   D(13,6,7,26)           45.7634         D2E/DX2 =    0.0251             !
 ! D77   D(13,6,7,37)         -172.4626         D2E/DX2 =    0.0208             !
 ! D78   D(14,6,7,5)          -163.3286         D2E/DX2 =    0.0099             !
 ! D79   D(14,6,7,26)          -96.4195         D2E/DX2 =    0.0147             !
 ! D80   D(14,6,7,37)           45.3545         D2E/DX2 =    0.0072             !
 ! D81   D(4,6,14,15)         -130.1077         D2E/DX2 =    0.016              !
 ! D82   D(4,6,14,16)          115.0618         D2E/DX2 =    0.0149             !
 ! D83   D(4,6,14,17)           -5.6406         D2E/DX2 =    0.0082             !
 ! D84   D(7,6,14,15)           46.6314         D2E/DX2 =    0.0118             !
 ! D85   D(7,6,14,16)          -68.1991         D2E/DX2 =    0.0132             !
 ! D86   D(7,6,14,17)          171.0985         D2E/DX2 =    0.0089             !
 ! D87   D(13,6,14,15)         -96.5064         D2E/DX2 =    0.0254             !
 ! D88   D(13,6,14,16)         148.6632         D2E/DX2 =    0.0267             !
 ! D89   D(13,6,14,17)          27.9608         D2E/DX2 =    0.0294             !
 ! D90   D(6,7,26,27)          135.8508         D2E/DX2 =    0.0178             !
 ! D91   D(6,7,26,28)           -1.5862         D2E/DX2 =    0.0173             !
 ! D92   D(37,7,26,27)          -4.4237         D2E/DX2 =    0.0173             !
 ! D93   D(37,7,26,28)        -141.8607         D2E/DX2 =    0.0192             !
 ! D94   D(5,7,37,38)          138.9314         D2E/DX2 =    0.0132             !
 ! D95   D(5,7,37,39)          -98.4567         D2E/DX2 =    0.0127             !
 ! D96   D(5,7,37,40)           19.8597         D2E/DX2 =    0.0125             !
 ! D97   D(6,7,37,38)          -68.5018         D2E/DX2 =    0.0092             !
 ! D98   D(6,7,37,39)           54.1101         D2E/DX2 =    0.0097             !
 ! D99   D(6,7,37,40)          172.4265         D2E/DX2 =    0.0094             !
 ! D100  D(26,7,37,38)          72.9248         D2E/DX2 =    0.0131             !
 ! D101  D(26,7,37,39)        -164.4633         D2E/DX2 =    0.0147             !
 ! D102  D(26,7,37,40)         -46.1469         D2E/DX2 =    0.0132             !
 ! D103  D(6,14,17,18)         145.2074         D2E/DX2 =    0.0174             !
 ! D104  D(6,14,17,19)         -97.0884         D2E/DX2 =    0.0158             !
 ! D105  D(6,14,17,20)          23.4772         D2E/DX2 =    0.0108             !
 ! D106  D(15,14,17,18)        -90.0842         D2E/DX2 =    0.0152             !
 ! D107  D(15,14,17,19)         27.62           D2E/DX2 =    0.0147             !
 ! D108  D(15,14,17,20)        148.1856         D2E/DX2 =    0.0165             !
 ! D109  D(16,14,17,18)         24.0186         D2E/DX2 =    0.0151             !
 ! D110  D(16,14,17,19)        141.7228         D2E/DX2 =    0.016              !
 ! D111  D(16,14,17,20)        -97.7116         D2E/DX2 =    0.0158             !
 ! D112  D(14,17,20,4)         -31.4007         D2E/DX2 =    0.01               !
 ! D113  D(14,17,20,21)       -148.5526         D2E/DX2 =    0.0131             !
 ! D114  D(14,17,20,22)         90.4147         D2E/DX2 =    0.0195             !
 ! D115  D(18,17,20,4)        -153.2554         D2E/DX2 =    0.0162             !
 ! D116  D(18,17,20,21)         89.5927         D2E/DX2 =    0.0134             !
 ! D117  D(18,17,20,22)        -31.44           D2E/DX2 =    0.0158             !
 ! D118  D(19,17,20,4)          89.183          D2E/DX2 =    0.0171             !
 ! D119  D(19,17,20,21)        -27.9689         D2E/DX2 =    0.0141             !
 ! D120  D(19,17,20,22)       -149.0016         D2E/DX2 =    0.0185             !
 ! D121  D(4,20,22,23)         172.7022         D2E/DX2 =    0.0156             !
 ! D122  D(4,20,22,24)         -69.4491         D2E/DX2 =    0.0146             !
 ! D123  D(4,20,22,25)          52.696          D2E/DX2 =    0.0143             !
 ! D124  D(17,20,22,23)         57.2444         D2E/DX2 =    0.0145             !
 ! D125  D(17,20,22,24)        175.093          D2E/DX2 =    0.0144             !
 ! D126  D(17,20,22,25)        -62.7618         D2E/DX2 =    0.0143             !
 ! D127  D(21,20,22,23)        -64.8904         D2E/DX2 =    0.0124             !
 ! D128  D(21,20,22,24)         52.9582         D2E/DX2 =    0.0119             !
 ! D129  D(21,20,22,25)        175.1034         D2E/DX2 =    0.0133             !
 --------------------------------------------------------------------------------
 Trust Radius=3.00D-01 FncErr=1.00D-07 GrdErr=1.00D-07 EigMax=2.50D+02 EigMin=1.00D-04
 Number of steps in this run=    240 maximum allowed number of steps=    240.
 GradGradGradGradGradGradGradGradGradGradGradGradGradGradGradGradGradGrad

 Leave Link  103 at Thu Mar 27 17:21:38 2025, MaxMem=  8053063680 cpu:               0.1 elap:               0.0
 (Enter /home/apps/g16_C02_zen2/g16/l202.exe)
                          Input orientation:                          
 ---------------------------------------------------------------------
 Center     Atomic      Atomic             Coordinates (Angstroms)
 Number     Number       Type             X           Y           Z
 ---------------------------------------------------------------------
      1          6           0       -0.393321   -1.549962    0.004832
      2          6           0       -1.842628   -1.000307   -0.053729
      3          6           0       -2.049641    0.241456    0.837086
      4          6           0        0.700420   -0.680282    0.633937
      5          6           0       -1.565026    1.505858    0.183001
      6          6           0        0.910660    0.682024    0.107786
      7          6           0       -0.084504    1.661556   -0.234447
      8          1           0       -0.395401   -2.512502    0.563576
      9          1           0       -1.598780    0.079514    1.833405
     10          1           0       -0.090396   -1.830126   -1.030711
     11          1           0       -3.139843    0.353837    1.055595
     12          1           0       -2.303671    1.916108   -0.530129
     13          1           0        0.441665   -0.572327    1.736503
     14          6           0        2.343751    1.011826    0.028157
     15          1           0        2.596794    1.992508    0.494724
     16          1           0        2.673098    1.158946   -1.034095
     17          6           0        3.091329   -0.166169    0.671009
     18          1           0        4.059858   -0.367733    0.176639
     19          1           0        3.343609    0.042121    1.727317
     20          6           0        2.117386   -1.358078    0.547172
     21          1           0        2.241281   -2.065596    1.399037
     22          6           0        2.361741   -2.101803   -0.760600
     23          1           0        3.406215   -2.446631   -0.828467
     24          1           0        1.745762   -3.008227   -0.845509
     25          1           0        2.172218   -1.483981   -1.643963
     26          6           0       -0.703254    2.461804    0.936185
     27          1           0       -0.820188    3.542345    0.799549
     28          1           0       -0.401178    2.254211    1.961354
     29          6           0       -2.191881   -0.680925   -1.515765
     30          1           0       -1.476693    0.004165   -1.978102
     31          1           0       -2.213755   -1.592285   -2.129479
     32          1           0       -3.188657   -0.228313   -1.600269
     33          6           0       -2.802442   -2.096447    0.441391
     34          1           0       -2.656288   -2.325411    1.502886
     35          1           0       -3.852129   -1.799195    0.313444
     36          1           0       -2.674483   -3.031262   -0.119407
     37          6           0        0.215412    2.410091   -1.509775
     38          1           0        1.084888    3.077224   -1.417708
     39          1           0        0.388805    1.731546   -2.358190
     40          1           0       -0.628678    3.055115   -1.813412
 ---------------------------------------------------------------------
                    Distance matrix (angstroms):
                    1          2          3          4          5
     1  C    0.000000
     2  C    1.551142   0.000000
     3  C    2.577833   1.542200   0.000000
     4  C    1.532444   2.653751   2.907526   0.000000
     5  C    3.277602   2.532581   1.503792   3.180377   0.000000
     6  C    2.587031   3.230622   3.080480   1.475437   2.610246
     7  C    3.235192   3.195179   2.650778   2.618091   1.546108
     8  H    1.112961   2.182262   3.224221   2.136072   4.202389
     9  H    2.729836   2.187865   1.105510   2.702283   2.181612
    10  H    1.114722   2.171039   3.408630   2.172230   3.844011
    11  H    3.503133   2.178778   1.117550   3.999353   2.137433
    12  H    3.993653   2.990818   2.176756   4.137736   1.105647
    13  H    2.156770   2.933615   2.770884   1.137656   3.280096
    14  C    3.748983   4.645553   4.533181   2.435311   3.942916
    15  H    4.661532   5.382027   4.977223   3.280157   4.201756
    16  H    4.221431   5.100517   5.162109   3.171206   4.423050
    17  C    3.808079   5.056181   5.159778   2.445840   4.971466
    18  H    4.610639   5.940754   6.175214   3.404795   5.928719
    19  H    4.412067   5.581742   5.469862   2.950220   5.349966
    20  C    2.575772   4.021292   4.472882   1.573127   4.679200
    21  H    3.025031   4.463595   4.904109   2.208783   5.359291
    22  C    2.912179   4.403372   5.244402   2.593346   5.415266
    23  H    3.991851   5.499311   6.306048   3.546820   6.431055
    24  H    2.724939   4.187506   5.272253   2.949717   5.691759
    25  H    3.050389   4.345317   5.191997   2.828595   5.122883
    26  C    4.130102   3.776812   2.598561   3.454614   1.491231
    27  H    5.171594   4.733831   3.522617   4.491131   2.254373
    28  H    4.277824   4.090260   2.834183   3.403940   2.253246
    29  C    2.510430   1.536727   2.531191   3.603696   2.839150
    30  H    2.742450   2.201382   2.882682   3.468578   2.633106
    31  H    2.805540   2.190185   3.491425   4.118328   3.920064
    32  H    3.483820   2.190788   2.731070   4.507867   2.970451
    33  C    2.508604   1.538802   2.487786   3.783205   3.817665
    34  H    2.822500   2.200226   2.720316   3.837839   4.196614
    35  H    3.481481   2.193430   2.772620   4.698977   4.021347
    36  H    2.722753   2.195695   3.466409   4.181459   4.680577
    37  C    4.283294   4.241039   3.916784   3.792247   2.617840
    38  H    5.061578   5.201639   4.790714   4.298362   3.471816
    39  H    4.118725   4.213414   4.286744   3.855755   3.213416
    40  H    4.956626   4.584387   4.118367   4.659315   2.694923
                    6          7          8          9         10
     6  C    0.000000
     7  C    1.437692   0.000000
     8  H    3.481169   4.261016   0.000000
     9  H    3.104524   3.011959   3.127161   0.000000
    10  H    2.934142   3.581328   1.760800   3.758339   0.000000
    11  H    4.172844   3.565029   3.998743   1.747890   4.292027
    12  H    3.501689   2.253203   4.944722   3.075101   4.379890
    13  H    2.108571   3.025183   2.416757   2.144226   3.085875
    14  C    1.472705   2.527357   4.495611   4.435277   3.888826
    15  H    2.170285   2.798318   5.408613   4.801506   4.915331
    16  H    2.153493   2.914863   5.044578   5.257059   4.070806
    17  C    2.406651   3.774434   4.204059   4.838249   3.973409
    18  H    3.320267   4.632790   4.959747   5.913128   4.562992
    19  H    2.991922   4.268846   4.675531   4.943669   4.785857
    20  C    2.410656   3.818041   2.765332   4.186999   2.754423
    21  H    3.314708   4.687132   2.801752   4.419982   3.375773
    22  C    3.257211   4.519272   3.086090   5.212748   2.481884
    23  H    4.110090   5.423576   4.049001   6.206202   3.556300
    24  H    3.901810   5.052736   2.610717   5.281732   2.189452
    25  H    3.058060   4.119943   3.538892   5.362559   2.369666
    26  C    2.541374   1.547136   4.997732   2.698569   4.760771
    27  H    3.414061   2.268865   6.074315   3.696791   5.722403
    28  H    2.761957   2.296316   4.967431   2.485946   5.072559
    29  C    3.757567   3.401474   3.302374   3.485251   2.443804
    30  H    3.241893   2.779471   3.736700   3.814206   2.486763
    31  H    4.465401   4.325775   3.377241   4.344831   2.402605
    32  H    4.533273   3.882375   4.207377   3.796391   3.534037
    33  C    4.649551   4.686846   2.445787   2.849792   3.097290
    34  H    4.869711   5.052554   2.455385   2.647873   3.639811
    35  H    5.374282   5.145093   3.538409   3.304151   3.994790
    36  H    5.166562   5.361321   2.435116   3.827211   2.991773
    37  C    2.467000   1.508879   5.376225   4.460912   4.278137
    38  H    2.845079   2.184423   6.112428   5.172821   5.060943
    39  H    2.730361   2.176971   5.211875   4.924345   3.831102
    40  H    3.419375   2.175146   6.058288   4.805681   4.976741
                   11         12         13         14         15
    11  H    0.000000
    12  H    2.377897   0.000000
    13  H    3.761465   4.343593   0.000000
    14  C    5.617685   4.767383   3.007643   0.000000
    15  H    5.992398   5.007067   3.572811   1.115102   0.000000
    16  H    6.229389   5.059201   3.956363   1.121826   1.742967
    17  C    6.264649   5.906322   2.884608   1.536166   2.221606
    18  H    7.288959   6.797790   3.945422   2.206865   2.795080
    19  H    6.525606   6.363935   2.966296   2.197086   2.425083
    20  C    5.552261   5.605945   2.199990   2.436610   3.385117
    21  H    5.910000   6.342889   2.362700   3.370510   4.172815
    22  C    6.292549   6.161396   3.501645   3.212032   4.288878
    23  H    7.364997   7.192030   4.345186   3.718005   4.702335
    24  H    6.227906   6.383295   3.781675   4.157128   5.246698
    25  H    6.235639   5.730168   3.905571   3.009064   4.103685
    26  C    3.224089   2.238123   3.340254   3.494451   3.362357
    27  H    3.951321   2.571656   4.404621   4.124207   3.764397
    28  H    3.454289   3.152980   2.958084   3.579861   3.347735
    29  C    2.929378   2.780028   4.186240   5.081443   5.841295
    30  H    3.477306   2.536936   4.220276   4.431281   5.163494
    31  H    3.845741   3.856789   4.799728   5.675179   6.548173
    32  H    2.719356   2.554788   4.942836   5.898920   6.541597
    33  C    2.548525   4.158513   3.811101   6.026229   6.773046
    34  H    2.759034   4.716776   3.567238   6.189698   6.874277
    35  H    2.386145   4.112520   4.686894   6.809711   7.483214
    36  H    3.613321   4.978219   4.381911   6.446008   7.307653
    37  C    4.697557   2.747636   4.414106   2.974930   3.140601
    38  H    5.602001   3.690301   4.866416   2.818001   2.668307
    39  H    5.099350   3.259647   4.698632   3.167723   3.616965
    40  H    4.672692   2.397864   5.187087   4.049906   4.106129
                   16         17         18         19         20
    16  H    0.000000
    17  C    2.199597   0.000000
    18  H    2.391595   1.105928   0.000000
    19  H    3.053240   1.105810   1.756586   0.000000
    20  C    3.024009   1.544199   2.211623   2.203844   0.000000
    21  H    4.062544   2.204638   2.772042   2.401118   1.114273
    22  C    3.286978   2.515647   2.601733   3.427858   1.524173
    23  H    3.685095   2.747378   2.399855   3.567890   2.176788
    24  H    4.273271   3.491085   3.656780   4.298509   2.191040
    25  H    2.758239   2.817888   2.850226   3.881582   2.195434
    26  C    4.120582   4.623356   5.591996   4.780989   4.764330
    27  H    4.609327   5.391621   6.284232   5.518109   5.719020
    28  H    4.429841   4.440815   5.473631   4.355633   4.625117
    29  C    5.223519   5.741016   6.484332   6.456162   4.825352
    30  H    4.409698   5.283335   5.952698   6.080039   4.598925
    31  H    5.714059   6.166073   6.795287   6.959199   5.096871
    32  H    6.050224   6.678382   7.464436   7.335970   5.834548
    33  C    6.538821   6.206065   7.081646   6.633327   4.976051
    34  H    6.854149   6.195922   7.120256   6.454017   4.963575
    35  H    7.290065   7.141866   8.041601   7.560961   5.990352
    36  H    6.855007   6.486764   7.247991   7.005249   5.119167
    37  C    2.798546   4.434393   5.033891   5.086419   4.695491
    38  H    2.519795   4.348350   4.822875   4.919843   4.959709
    39  H    2.701684   4.481184   4.930412   5.317555   4.579836
    40  H    3.886453   5.512484   6.136657   6.115060   5.708721
                   21         22         23         24         25
    21  H    0.000000
    22  C    2.163297   0.000000
    23  H    2.542446   1.102015   0.000000
    24  H    2.484367   1.099202   1.752936   0.000000
    25  H    3.098854   1.094511   1.764788   1.772772   0.000000
    26  C    5.420504   5.753241   6.640366   6.252468   5.522203
    27  H    6.417241   6.664469   7.508712   7.224979   6.339496
    28  H    5.095048   5.832462   6.661625   6.338856   5.796099
    29  C    5.483275   4.829560   5.910057   4.622836   4.439223
    30  H    5.432523   4.544336   5.583086   4.554282   3.954842
    31  H    5.702788   4.802979   5.831518   4.396731   4.414093
    32  H    6.469595   5.917932   7.000638   5.713674   5.506141
    33  C    5.133924   5.302226   6.346856   4.813898   5.428726
    34  H    4.905554   5.509445   6.496448   5.035796   5.824529
    35  H    6.195089   6.313266   7.376089   5.843057   6.342205
    36  H    5.234780   5.161257   6.149751   4.479544   5.311201
    37  C    5.709387   5.052245   5.850910   5.669337   4.360148
    38  H    5.976612   5.374427   6.020693   6.147917   4.694473
    39  H    5.653911   4.597754   5.376056   5.157033   3.745704
    40  H    6.691649   6.053497   6.893452   6.583230   5.336397
                   26         27         28         29         30
    26  C    0.000000
    27  H    1.095405   0.000000
    28  H    1.088723   1.784559   0.000000
    29  C    4.254975   5.007817   4.889990   0.000000
    30  H    3.889892   4.545884   4.662484   1.092977   0.000000
    31  H    5.302409   6.073356   5.900498   1.098954   1.764888
    32  H    4.455060   5.058324   5.159276   1.097980   1.768509
    33  C    5.042724   5.987787   5.196594   2.491375   3.467583
    34  H    5.201241   6.188417   5.125295   3.468755   4.351511
    35  H    5.334729   6.161251   5.572681   2.711634   3.761115
    36  H    5.930750   6.891676   6.118310   2.776113   3.755431
    37  C    2.613301   2.772625   3.528912   3.917840   2.978426
    38  H    3.019438   2.960048   3.782037   4.987035   4.039731
    39  H    3.546657   3.835620   4.422185   3.631754   2.570680
    40  H    2.813870   2.664890   3.865496   4.060812   3.170891
                   31         32         33         34         35
    31  H    0.000000
    32  H    1.758099   0.000000
    33  C    2.685164   2.794184   0.000000
    34  H    3.731941   3.782963   1.095700   0.000000
    35  H    2.948721   2.563233   1.098441   1.766837   0.000000
    36  H    2.514620   3.211518   1.097610   1.769292   1.758466
    37  C    4.722700   4.307789   5.763972   6.304582   6.130832
    38  H    5.761248   5.405838   6.733087   7.191295   7.151957
    39  H    4.227704   4.148943   5.716227   6.374904   6.131010
    40  H    4.920436   4.168912   6.028929   6.637702   6.203103
                   36         37         38         39         40
    36  H    0.000000
    37  C    6.316085   0.000000
    38  H    7.289174   1.099787   0.000000
    39  H    6.089353   1.100134   1.783224   0.000000
    40  H    6.640705   1.104871   1.758800   1.756101   0.000000
 Stoichiometry    C15H25(1+)
 Framework group  C1[X(C15H25)]
 Deg. of freedom   114
 Full point group                 C1      NOp   1
 RotChk:  IX=0 Diff= 5.75D-02
 Largest Abelian subgroup         C1      NOp   1
 Largest concise Abelian subgroup C1      NOp   1
                         Standard orientation:                         
 ---------------------------------------------------------------------
 Center     Atomic      Atomic             Coordinates (Angstroms)
 Number     Number       Type             X           Y           Z
 ---------------------------------------------------------------------
      1          6           0        0.421501   -1.523412    0.028568
      2          6           0        1.859088   -0.940843    0.028202
      3          6           0        2.015787    0.268945   -0.915323
      4          6           0       -0.706907   -0.702962   -0.605422
      5          6           0        1.519349    1.547474   -0.298635
      6          6           0       -0.934525    0.674220   -0.127433
      7          6           0        0.046595    1.687667    0.150574
      8          1           0        0.431270   -2.506993   -0.492157
      9          1           0        1.543926    0.058139   -1.892595
     10          1           0        0.150929   -1.768921    1.081716
     11          1           0        3.097385    0.396023   -1.166152
     12          1           0        2.266169    2.001344    0.378652
     13          1           0       -0.478281   -0.633083   -1.717675
     14          6           0       -2.372235    0.976024   -0.023677
     15          1           0       -2.658855    1.931854   -0.521361
     16          1           0       -2.678159    1.157852    1.040203
     17          6           0       -3.108956   -0.242233   -0.600650
     18          1           0       -4.060048   -0.444896   -0.073936
     19          1           0       -3.392176   -0.081280   -1.657389
     20          6           0       -2.105656   -1.407110   -0.455738
     21          1           0       -2.234853   -2.150207   -1.275932
     22          6           0       -2.300461   -2.103704    0.885870
     23          1           0       -3.334890   -2.467958    0.994086
     24          1           0       -1.662317   -2.992617    0.990040
     25          1           0       -2.102867   -1.447557    1.739322
     26          6           0        0.617738    2.454191   -1.065923
     27          1           0        0.713713    3.541548   -0.974516
     28          1           0        0.294882    2.199840   -2.074083
     29          6           0        2.237496   -0.556553    1.467181
     30          1           0        1.518854    0.130722    1.920838
     31          1           0        2.295196   -1.442292    2.115130
     32          1           0        3.225637   -0.079634    1.508207
     33          6           0        2.830644   -2.034789   -0.448529
     34          1           0        2.663195   -2.308571   -1.496175
     35          1           0        3.876248   -1.710219   -0.359429
     36          1           0        2.737800   -2.949269    0.151349
     37          6           0       -0.238120    2.479348    1.403129
     38          1           0       -1.124412    3.123480    1.307676
     39          1           0       -0.374948    1.831258    2.281510
     40          1           0        0.598571    3.153855    1.659506
 ---------------------------------------------------------------------
 Rotational constants (GHZ):           0.7783754           0.5753364           0.4089820
 Leave Link  202 at Thu Mar 27 17:21:38 2025, MaxMem=  8053063680 cpu:               0.0 elap:               0.0
 (Enter /home/apps/g16_C02_zen2/g16/l301.exe)
 Standard basis: VSTO-6G (5D, 7F)
 Ernie: Thresh=  0.10000D-02 Tol=  0.10000D-05 Strict=F.
 EHB=         0.000000000 Number of Hydrogen Bond terms=           0
  NNHCO=     0 NNPyr=     0 NCTC=     0               EPep=         0.000000000
    EC=       542.028974458  ECS=         6.747177361   EG=         1.373718410
   EHC=         0.000923861  EAt=       -73.943797150  AtH=         6.160703796
 EPDDG=         0.000000000  ECC=       550.150794090 EAtT=        80.104500946
  EHyb=         0.000000000
 There are    85 symmetry adapted cartesian basis functions of A   symmetry.
 There are    85 symmetry adapted basis functions of A   symmetry.
    85 basis functions,   510 primitive gaussians,    85 cartesian basis functions
    42 alpha electrons       42 beta electrons
       nuclear repulsion energy       630.2552950353 Hartrees.
 IExCor=    0 DFT=F Ex=HF Corr=None ExCW=0 ScaHFX=  1.000000
 ScaDFX=  1.000000  1.000000  1.000000  1.000000 ScalE2=  1.000000  1.000000
 IRadAn=      5 IRanWt=     -1 IRanGd=            0 ICorTp=0 IEmpDi=251
 Integral buffers will be    131072 words long.
 Regular integral format.
 Two-electron integral symmetry is turned off.
 R6Disp:  PM7 Dispersion energy=       -0.0121636818 Hartrees.
 Nuclear repulsion after empirical dispersion term =      630.2431313535 Hartrees.
 Leave Link  301 at Thu Mar 27 17:21:38 2025, MaxMem=  8053063680 cpu:               0.0 elap:               0.0
 (Enter /home/apps/g16_C02_zen2/g16/l302.exe)
 Do NDO integrals.
 NPDir=0 NMtPBC=     1 NCelOv=     1 NCel=       1 NClECP=     1 NCelD=      1
         NCelK=      1 NCelE2=     1 NClLst=     1 CellRange=     0.0.
 One-electron integrals computed using PRISM.
 NBasis=    85 RedAO= F EigKep=  0.00D+00  NBF=    85
 NBsUse=    85 1.00D-04 EigRej=  0.00D+00 NBFU=    85
 Leave Link  302 at Thu Mar 27 17:21:38 2025, MaxMem=  8053063680 cpu:               0.1 elap:               0.0
 (Enter /home/apps/g16_C02_zen2/g16/l303.exe)
 DipDrv:  MaxL=1.
 Leave Link  303 at Thu Mar 27 17:21:38 2025, MaxMem=  8053063680 cpu:               0.0 elap:               0.0
 (Enter /home/apps/g16_C02_zen2/g16/l401.exe)
 Initial guess from the checkpoint file:  "IM5_tsopt_Fopt.chk"
 B after Tr=    -0.011988    0.031593   -0.031678
         Rot=    0.012715   -0.011002    0.999666   -0.019607 Ang=-178.54 deg.
 Guess basis will be translated and rotated to current coordinates.
 JPrj=0 DoOrth=T DoCkMO=T.
 Leave Link  401 at Thu Mar 27 17:21:38 2025, MaxMem=  8053063680 cpu:               0.1 elap:               0.1
 (Enter /home/apps/g16_C02_zen2/g16/l502.exe)
 Keep J ints in memory in canonical form, NReq=876540.
 FoFCou: FMM=F IPFlag=           0 FMFlag=           0 FMFlg1=           0
         NFxFlg=           0 DoJE=F BraDBF=F KetDBF=F FulRan=T
         wScrn=  0.000000 ICntrl=       600 IOpCl=  2 I1Cent=           0 NGrid=           0
         NMat0=    1 NMatS0=    175 NMatT0=    0 NMatD0=    1 NMtDS0=    0 NMtDT0=    0
 Symmetry not used in FoFCou.
 Two-electron integral symmetry not used.
 Closed shell SCF:
 Using DIIS extrapolation, IDIIS=  1040.
 Overlap will be assumed to be unity.
 NGot=  8053063680 LenX=  8052971523 LenY=  8052963857
 Requested convergence on RMS density matrix=1.00D-08 within 128 cycles.
 Requested convergence on MAX density matrix=1.00D-06.
 Requested convergence on             energy=1.00D-06.
 No special actions if energy rises.

 Cycle   1  Pass 1  IDiag  1:
 E= 0.246375827462430    
 DIIS: error= 3.39D-09 at cycle   1 NSaved=   1.
 NSaved= 1 IEnMin= 1 EnMin= 0.246375827462430     IErMin= 1 ErrMin= 3.39D-09
 ErrMax= 3.39D-09  0.00D+00 EMaxC= 1.00D-01 BMatC= 1.03D-15 BMatP= 1.03D-15
 IDIUse=1 WtCom= 1.00D+00 WtEn= 0.00D+00
 Coeff-Com:  0.100D+01
 Coeff:      0.100D+01
 RMSDP=9.75D-10 MaxDP=1.27D-08              OVMax= 0.00D+00

 Cycle   2  Pass 2  IDiag  1:
 SCF Done:  E(RPM7) =  0.246375827462     A.U. after    2 cycles
            NFock=  1  Conv=0.98D-09     -V/T= 1.0019
 KE=-1.265809583692D+02 PE=-1.068723290834D+03 EE= 5.653074936769D+02
 Leave Link  502 at Thu Mar 27 17:21:38 2025, MaxMem=  8053063680 cpu:               0.1 elap:               0.0
 (Enter /home/apps/g16_C02_zen2/g16/l701.exe)
 ... and contract with generalized density number  0.
 Compute integral first derivatives.
 R6Disp: Adding PM7 dispersion energy 1st derivatives to the gradient.
 Leave Link  701 at Thu Mar 27 17:21:39 2025, MaxMem=  8053063680 cpu:               0.1 elap:               0.0
 (Enter /home/apps/g16_C02_zen2/g16/l702.exe)
 L702 exits ... SP integral derivatives will be done elsewhere.
 Leave Link  702 at Thu Mar 27 17:21:39 2025, MaxMem=  8053063680 cpu:               0.0 elap:               0.0
 (Enter /home/apps/g16_C02_zen2/g16/l703.exe)
 Integral derivatives from FoFJK, PRISM(SPDF).
 Compute integral first derivatives, UseDBF=F ICtDFT=           0.
 Calling FoFJK, ICntrl=      2127 FMM=F ISym2X=0 I1Cent= 0 IOpClX= 0 NMat=1 NMatS=1 NMatT=0.
 FoFJK:  IHMeth=43 ICntrl=    2127 DoSepK=F KAlg= 0 I1Cent=           0 FoldK=F
 IRaf=         0 NMat=       1 IRICut=       1 DoRegI=T DoRafI=F ISym2E= 0 IDoP0=3 IntGTp=3.
 FoFCou: FMM=F IPFlag=           0 FMFlag=      100000 FMFlg1=         800
         NFxFlg=           0 DoJE=F BraDBF=F KetDBF=F FulRan=T
         wScrn=  0.000000 ICntrl=      2127 IOpCl=  0 I1Cent=           0 NGrid=           0
         NMat0=    1 NMatS0=      1 NMatT0=    0 NMatD0=    1 NMtDS0=    0 NMtDT0=    0
 Symmetry not used in FoFCou.
 Leave Link  703 at Thu Mar 27 17:21:39 2025, MaxMem=  8053063680 cpu:               0.1 elap:               0.0
 (Enter /home/apps/g16_C02_zen2/g16/l716.exe)
 Dipole        =-1.17239682D+00 9.94768348D-01-2.42912816D-01
 ***** Axes restored to original set *****
 -------------------------------------------------------------------
 Center     Atomic                   Forces (Hartrees/Bohr)
 Number     Number              X              Y              Z
 -------------------------------------------------------------------
      1        6           0.000742438    0.001678636   -0.002226036
      2        6           0.000054147    0.000066511   -0.000389964
      3        6          -0.000001167   -0.000115063   -0.000150890
      4        6          -0.000167212   -0.000099779   -0.000874608
      5        6           0.000061230    0.000017391    0.000121490
      6        6          -0.000371696   -0.000473752    0.000658268
      7        6           0.000023713    0.000219587   -0.000095592
      8        1           0.000134287   -0.001136469   -0.000025181
      9        1          -0.000001203   -0.000015053   -0.000014850
     10        1          -0.000484228    0.000264460    0.001474392
     11        1           0.000004203   -0.000010697   -0.000008594
     12        1           0.000013001    0.000001016    0.000017672
     13        1           0.000116391    0.000106915   -0.000246182
     14        6           0.000269438   -0.000455303   -0.001097707
     15        1           0.000105351    0.000371991    0.000005353
     16        1           0.000140919   -0.000043692   -0.000315012
     17        6          -0.000114848    0.000026417    0.000135677
     18        1           0.000024427   -0.000022245   -0.000003644
     19        1          -0.000015941    0.000039555    0.000045685
     20        6          -0.000314898    0.000220665    0.000860018
     21        1           0.000010133    0.000011279    0.000053666
     22        6           0.000028248   -0.000643726    0.001095229
     23        1           0.000087152   -0.000072526    0.000071984
     24        1          -0.000010664   -0.000017955    0.000064850
     25        1           0.000024585   -0.000025007   -0.000046593
     26        6           0.000074383   -0.000221794    0.000319467
     27        1           0.000012858   -0.000012206    0.000026400
     28        1           0.000025406   -0.000053617    0.000028191
     29        6          -0.000885210    0.000009171   -0.000011930
     30        1          -0.000092608    0.000015290    0.000001929
     31        1          -0.000035733    0.000014766   -0.000006044
     32        1          -0.000032523   -0.000034092    0.000031404
     33        6           0.000557004   -0.000330835    0.000218983
     34        1           0.000052870   -0.000006993   -0.000050499
     35        1           0.000058707   -0.000035140    0.000054181
     36        1          -0.000003616   -0.000010883   -0.000001415
     37        6          -0.000075061    0.000634411    0.000238748
     38        1           0.000003772    0.000022656    0.000005424
     39        1          -0.000033348    0.000067563   -0.000008987
     40        1           0.000015293    0.000048546    0.000044716
 -------------------------------------------------------------------
 Cartesian Forces:  Max     0.002226036 RMS     0.000411408
 Leave Link  716 at Thu Mar 27 17:21:39 2025, MaxMem=  8053063680 cpu:               0.0 elap:               0.0
 (Enter /home/apps/g16_C02_zen2/g16/l103.exe)

 GradGradGradGradGradGradGradGradGradGradGradGradGradGradGradGradGradGrad
 Berny optimization.
 FormGI is forming the generalized inverse of G from B-inverse, IUseBI=4.
 Internal  Forces:  Max     0.001567721 RMS     0.000347086
 Search for a local minimum.
 Step number   1 out of a maximum of  240
 All quantities printed in internal units (Hartrees-Bohrs-Radians)
 RMS Force = .34709D-03 SwitMx=.10000D-02 MixMth= 2
 Mixed Optimization -- En-DIIS/RFO-DIIS
 Second derivative matrix not updated -- first step.
 ITU=  0
     Eigenvalues ---   -0.04398   0.00040   0.00091   0.00131   0.00154
     Eigenvalues ---    0.00192   0.00252   0.00497   0.00634   0.00984
     Eigenvalues ---    0.01554   0.01672   0.01883   0.02145   0.02280
     Eigenvalues ---    0.02842   0.02944   0.03060   0.03095   0.03244
     Eigenvalues ---    0.03310   0.03382   0.03581   0.03661   0.03717
     Eigenvalues ---    0.03789   0.03806   0.03839   0.03890   0.03911
     Eigenvalues ---    0.03926   0.03960   0.03993   0.04124   0.04222
     Eigenvalues ---    0.04592   0.04771   0.04874   0.04981   0.05097
     Eigenvalues ---    0.05503   0.06093   0.06149   0.06308   0.06663
     Eigenvalues ---    0.07039   0.07490   0.07875   0.08252   0.08683
     Eigenvalues ---    0.09099   0.09424   0.10412   0.10935   0.10988
     Eigenvalues ---    0.11035   0.11076   0.11344   0.11464   0.12224
     Eigenvalues ---    0.12781   0.12815   0.12876   0.13053   0.13312
     Eigenvalues ---    0.13596   0.13718   0.13855   0.14158   0.15339
     Eigenvalues ---    0.15580   0.15769   0.18308   0.19808   0.22397
     Eigenvalues ---    0.23393   0.23647   0.24170   0.24472   0.24783
     Eigenvalues ---    0.24935   0.25028   0.25156   0.25212   0.25249
     Eigenvalues ---    0.25363   0.25411   0.25825   0.25970   0.26074
     Eigenvalues ---    0.26193   0.26228   0.26329   0.26448   0.27321
     Eigenvalues ---    0.27553   0.27562   0.28176   0.28496   0.29740
     Eigenvalues ---    0.30889   0.31172   0.32034   0.33640   0.34756
     Eigenvalues ---    0.35491   0.36313   0.38370   0.39128   0.41804
     Eigenvalues ---    0.43201   0.45722   0.46329   0.52748
 Eigenvalue     1 is  -4.40D-02 should be greater than     0.000000 Eigenvector:
                          R17       A28       D52       D87       D74
   1                   -0.68499   0.26227  -0.19493   0.16640   0.16385
                          D89       D72       D88       D73       D76
   1                    0.16224   0.16124   0.15587   0.15288  -0.14000
 RFO step:  Lambda=-4.39797642D-02 EMin=-4.39773949D-02
 I=     1 Eig=   -4.40D-02 Dot1=  1.93D-04
 I=     1 Stepn=  6.00D-01 RXN=   6.00D-01 EDone=F
 Mixed    1 eigenvectors in step.  Raw Step.Grad=  1.93D-04.
 RFO eigenvector is Hessian eigenvector with negative curvature.
 Taking step of  6.00D-01 in eigenvector direction(s).  Step.Grad=  3.89D-04.
 Linear search not attempted -- first point.
 Maximum step size (   0.300) exceeded in Quadratic search.
    -- Step size not scaled.
 Iteration  1 RMS(Cart)=  0.03247921 RMS(Int)=  0.01454186
 Iteration  2 RMS(Cart)=  0.01228907 RMS(Int)=  0.00202842
 Iteration  3 RMS(Cart)=  0.00195742 RMS(Int)=  0.00040035
 Iteration  4 RMS(Cart)=  0.00000028 RMS(Int)=  0.00040035
 ITry= 1 IFail=0 DXMaxC= 4.95D-01 DCOld= 1.00D+10 DXMaxT= 3.00D-01 DXLimC= 3.00D+00 Rises=F
 Variable       Old X    -DE/DX   Delta X   Delta X   Delta X     New X
                                 (Linear)    (Quad)   (Total)
    R1        2.93123  -0.00023   0.00000   0.01098   0.01113   2.94236
    R2        2.89590  -0.00016   0.00000  -0.05506  -0.05474   2.84116
    R3        2.10319   0.00097   0.00000   0.01375   0.01375   2.11694
    R4        2.10652  -0.00157   0.00000   0.00689   0.00689   2.11341
    R5        2.91434  -0.00018   0.00000   0.00117   0.00095   2.91529
    R6        2.90399   0.00022   0.00000   0.00093   0.00093   2.90492
    R7        2.90791  -0.00007   0.00000   0.00055   0.00055   2.90847
    R8        2.84175   0.00008   0.00000   0.00126   0.00120   2.84296
    R9        2.08911  -0.00001   0.00000  -0.00080  -0.00080   2.08831
   R10        2.11186  -0.00001   0.00000  -0.00019  -0.00019   2.11168
   R11        2.78817  -0.00003   0.00000  -0.04315  -0.04277   2.74540
   R12        2.97278  -0.00034   0.00000  -0.03480  -0.03428   2.93850
   R13        2.92172   0.00013   0.00000  -0.00552  -0.00586   2.91586
   R14        2.08937  -0.00002   0.00000  -0.00186  -0.00186   2.08751
   R15        2.81802   0.00028   0.00000   0.00337   0.00328   2.82130
   R16        2.71684   0.00055   0.00000   0.02037   0.02025   2.73709
   R17        3.98462  -0.00028   0.00000  -0.41099  -0.41099   3.57363
   R18        2.78301   0.00058   0.00000   0.02952   0.02935   2.81236
   R19        2.92366   0.00000   0.00000  -0.00540  -0.00511   2.91855
   R20        2.85137   0.00013   0.00000  -0.00488  -0.00488   2.84649
   R21        2.10724   0.00035   0.00000  -0.00399  -0.00399   2.10325
   R22        2.11994   0.00033   0.00000  -0.00483  -0.00483   2.11511
   R23        2.90293   0.00046   0.00000  -0.00325  -0.00352   2.89941
   R24        2.08990   0.00003   0.00000   0.00192   0.00192   2.09182
   R25        2.08968   0.00005   0.00000  -0.00182  -0.00182   2.08786
   R26        2.91811   0.00003   0.00000  -0.00453  -0.00491   2.91320
   R27        2.10567   0.00003   0.00000   0.00069   0.00069   2.10636
   R28        2.88027  -0.00063   0.00000   0.00252   0.00252   2.88279
   R29        2.08251   0.00010   0.00000  -0.00047  -0.00047   2.08204
   R30        2.07719   0.00002   0.00000  -0.00239  -0.00239   2.07481
   R31        2.06833   0.00002   0.00000  -0.00191  -0.00191   2.06642
   R32        2.07002  -0.00002   0.00000  -0.00251  -0.00251   2.06751
   R33        2.05739   0.00004   0.00000  -0.00188  -0.00188   2.05551
   R34        2.06543  -0.00005   0.00000   0.00270   0.00270   2.06812
   R35        2.07672  -0.00001   0.00000  -0.00036  -0.00036   2.07636
   R36        2.07488   0.00001   0.00000   0.00226   0.00226   2.07714
   R37        2.07057  -0.00004   0.00000   0.00192   0.00192   2.07250
   R38        2.07575  -0.00007   0.00000   0.00273   0.00273   2.07848
   R39        2.07418   0.00001   0.00000  -0.00018  -0.00018   2.07400
   R40        2.07830   0.00002   0.00000  -0.00020  -0.00020   2.07809
   R41        2.07895  -0.00004   0.00000  -0.00330  -0.00330   2.07565
   R42        2.08790   0.00000   0.00000  -0.00305  -0.00305   2.08485
    A1        2.07289   0.00018   0.00000   0.00653   0.00609   2.07899
    A2        1.90040  -0.00053   0.00000  -0.00149  -0.00139   1.89901
    A3        1.88378   0.00046   0.00000  -0.00350  -0.00339   1.88039
    A4        1.86090   0.00003   0.00000   0.00294   0.00302   1.86391
    A5        1.90715  -0.00001   0.00000   0.00103   0.00122   1.90837
    A6        1.82298  -0.00020   0.00000  -0.00727  -0.00733   1.81565
    A7        1.97027  -0.00050   0.00000   0.00605   0.00562   1.97589
    A8        1.89855   0.00107   0.00000  -0.00537  -0.00518   1.89337
    A9        1.89465  -0.00066   0.00000  -0.00097  -0.00087   1.89378
   A10        1.93018  -0.00024   0.00000  -0.00065  -0.00054   1.92965
   A11        1.87967   0.00057   0.00000  -0.00179  -0.00161   1.87806
   A12        1.88852  -0.00026   0.00000   0.00274   0.00259   1.89111
   A13        1.96331   0.00019   0.00000  -0.00016  -0.00047   1.96283
   A14        1.92611  -0.00003   0.00000   0.00452   0.00434   1.93044
   A15        1.90166  -0.00010   0.00000  -0.00325  -0.00285   1.89881
   A16        1.96463  -0.00025   0.00000  -0.00221  -0.00205   1.96259
   A17        1.89111   0.00016   0.00000   0.00077   0.00081   1.89192
   A18        1.80942   0.00003   0.00000   0.00016   0.00011   1.80953
   A19        2.07066  -0.00027   0.00000   0.03660   0.03463   2.10528
   A20        1.95596  -0.00003   0.00000   0.03229   0.02969   1.98565
   A21        1.82328   0.00079   0.00000   0.02420   0.02271   1.84598
   A22        2.10680   0.00001   0.00000  -0.00763  -0.00783   2.09897
   A23        1.95760   0.00000   0.00000   0.00095   0.00124   1.95884
   A24        2.10081  -0.00020   0.00000   0.00388   0.00364   2.10444
   A25        2.01331   0.00005   0.00000   0.00590   0.00578   2.01909
   A26        2.06460   0.00020   0.00000  -0.00286  -0.00289   2.06171
   A27        2.23361  -0.00004   0.00000   0.02492   0.02269   2.25630
   A28        0.54251   0.00003   0.00000   0.15736   0.15678   0.69929
   A29        1.94412  -0.00028   0.00000  -0.00246  -0.00358   1.94054
   A30        2.02108  -0.00039   0.00000  -0.03217  -0.03290   1.98818
   A31        2.10381   0.00031   0.00000  -0.01672  -0.01836   2.08545
   A32        1.97298   0.00002   0.00000   0.00918   0.00864   1.98161
   A33        2.12934  -0.00043   0.00000  -0.01633  -0.01669   2.11264
   A34        2.05839  -0.00019   0.00000   0.00063   0.00089   2.05928
   A35        2.03659  -0.00071   0.00000  -0.00975  -0.00965   2.02694
   A36        1.98407   0.00083   0.00000   0.01451   0.01454   1.99860
   A37        2.05152  -0.00013   0.00000  -0.00009  -0.00013   2.05139
   A38        1.97702   0.00008   0.00000  -0.01119  -0.01077   1.96625
   A39        1.94577   0.00019   0.00000   0.01283   0.01271   1.95849
   A40        1.85376  -0.00035   0.00000  -0.01122  -0.01165   1.84212
   A41        1.78670  -0.00009   0.00000   0.00395   0.00390   1.79060
   A42        1.97021  -0.00029   0.00000   0.01014   0.00994   1.98015
   A43        1.93259   0.00051   0.00000  -0.00336  -0.00296   1.92962
   A44        1.95939   0.00019   0.00000   0.00214   0.00206   1.96144
   A45        1.94585  -0.00047   0.00000   0.00077   0.00125   1.94711
   A46        1.82492   0.00045   0.00000  -0.00518  -0.00588   1.81904
   A47        1.83541   0.00009   0.00000  -0.00101  -0.00112   1.83429
   A48        1.95608  -0.00025   0.00000  -0.00533  -0.00485   1.95123
   A49        1.94538  -0.00002   0.00000   0.00892   0.00889   1.95426
   A50        1.80402  -0.00035   0.00000   0.01063   0.01072   1.81474
   A51        1.90876   0.00006   0.00000   0.01017   0.00987   1.91863
   A52        1.98446   0.00046   0.00000  -0.01733  -0.01706   1.96740
   A53        1.93763   0.00027   0.00000  -0.00127  -0.00111   1.93653
   A54        1.92232   0.00023   0.00000   0.00009  -0.00026   1.92206
   A55        1.90530  -0.00062   0.00000  -0.00170  -0.00165   1.90366
   A56        1.93636  -0.00008   0.00000  -0.00332  -0.00332   1.93304
   A57        1.95931  -0.00010   0.00000   0.00391   0.00390   1.96321
   A58        1.97067   0.00012   0.00000  -0.00049  -0.00049   1.97017
   A59        1.84247   0.00003   0.00000  -0.00188  -0.00188   1.84059
   A60        1.86611   0.00001   0.00000  -0.00188  -0.00188   1.86423
   A61        1.88189   0.00001   0.00000   0.00345   0.00344   1.88533
   A62        2.10326   0.00002   0.00000   0.00128   0.00156   2.10482
   A63        2.11029  -0.00002   0.00000  -0.00210  -0.00231   2.10798
   A64        2.04715  -0.00002   0.00000   0.00457   0.00467   2.05182
   A65        2.09773   0.00001   0.00000  -0.00126  -0.00126   2.09647
   A66        1.91257   0.00001   0.00000  -0.00061  -0.00065   1.91192
   A67        1.96493   0.00008   0.00000   0.00034   0.00034   1.96527
   A68        1.94280   0.00003   0.00000   0.00282   0.00282   1.94561
   A69        1.94466  -0.00009   0.00000  -0.00071  -0.00071   1.94395
   A70        1.87194  -0.00001   0.00000   0.00094   0.00093   1.87287
   A71        1.87873  -0.00001   0.00000  -0.00256  -0.00256   1.87618
   A72        1.85543  -0.00001   0.00000  -0.00100  -0.00100   1.85442
   A73        1.95775  -0.00006   0.00000   0.00103   0.00103   1.95877
   A74        1.94530   0.00007   0.00000  -0.00115  -0.00115   1.94415
   A75        1.94934   0.00001   0.00000   0.00219   0.00219   1.95153
   A76        1.87220   0.00000   0.00000  -0.00158  -0.00158   1.87062
   A77        1.87701   0.00000   0.00000   0.00061   0.00060   1.87762
   A78        1.85706  -0.00001   0.00000  -0.00129  -0.00129   1.85577
   A79        1.96851  -0.00002   0.00000  -0.00371  -0.00372   1.96479
   A80        1.95754   0.00009   0.00000  -0.00256  -0.00257   1.95497
   A81        1.94985  -0.00004   0.00000   0.00432   0.00432   1.95418
   A82        1.89030  -0.00002   0.00000  -0.00161  -0.00163   1.88867
   A83        1.84716  -0.00001   0.00000   0.00155   0.00155   1.84871
   A84        1.84269  -0.00001   0.00000   0.00252   0.00252   1.84521
    D1       -0.23448   0.00028   0.00000  -0.00000   0.00011  -0.23438
    D2        1.91481   0.00042   0.00000  -0.00061  -0.00053   1.91428
    D3       -2.31710   0.00033   0.00000  -0.00087  -0.00079  -2.31790
    D4        1.89810   0.00001   0.00000   0.00762   0.00763   1.90573
    D5       -2.23579   0.00014   0.00000   0.00702   0.00699  -2.22879
    D6       -0.18452   0.00006   0.00000   0.00676   0.00673  -0.17779
    D7       -2.41595  -0.00025   0.00000  -0.00337  -0.00329  -2.41924
    D8       -0.26665  -0.00012   0.00000  -0.00398  -0.00393  -0.27058
    D9        1.78462  -0.00021   0.00000  -0.00424  -0.00419   1.78042
   D10       -0.96482  -0.00070   0.00000   0.05645   0.05696  -0.90786
   D11       -3.09249  -0.00156   0.00000  -0.03634  -0.03686  -3.12936
   D12       -3.11707  -0.00015   0.00000   0.05127   0.05183  -3.06524
   D13        1.03844  -0.00101   0.00000  -0.04153  -0.04199   0.99644
   D14        1.20527   0.00007   0.00000   0.05772   0.05823   1.26350
   D15       -0.92240  -0.00078   0.00000  -0.03507  -0.03559  -0.95799
   D16        1.41092   0.00022   0.00000  -0.00493  -0.00497   1.40594
   D17       -0.79914   0.00043   0.00000  -0.00545  -0.00533  -0.80447
   D18       -2.77495   0.00047   0.00000  -0.00626  -0.00619  -2.78114
   D19       -0.72070  -0.00063   0.00000  -0.00178  -0.00185  -0.72255
   D20       -2.93077  -0.00043   0.00000  -0.00230  -0.00220  -2.93296
   D21        1.37661  -0.00039   0.00000  -0.00311  -0.00306   1.37355
   D22       -2.78100  -0.00053   0.00000  -0.00365  -0.00371  -2.78471
   D23        1.29212  -0.00032   0.00000  -0.00417  -0.00406   1.28806
   D24       -0.68368  -0.00028   0.00000  -0.00498  -0.00492  -0.68861
   D25       -0.96618  -0.00014   0.00000  -0.00451  -0.00435  -0.97054
   D26        1.13642  -0.00008   0.00000  -0.00106  -0.00090   1.13552
   D27       -3.07890  -0.00012   0.00000  -0.00094  -0.00078  -3.07968
   D28        1.20697  -0.00019   0.00000  -0.00102  -0.00120   1.20577
   D29       -2.97362  -0.00013   0.00000   0.00244   0.00226  -2.97136
   D30       -0.90575  -0.00018   0.00000   0.00256   0.00238  -0.90337
   D31       -3.02134   0.00021   0.00000  -0.00192  -0.00190  -3.02325
   D32       -0.91874   0.00027   0.00000   0.00154   0.00155  -0.91719
   D33        1.14913   0.00022   0.00000   0.00166   0.00167   1.15080
   D34        1.15409  -0.00051   0.00000   0.00553   0.00535   1.15944
   D35       -3.02938  -0.00050   0.00000   0.00341   0.00323  -3.02615
   D36       -0.95468  -0.00047   0.00000   0.00247   0.00228  -0.95240
   D37       -0.98447   0.00015   0.00000  -0.00013   0.00004  -0.98443
   D38        1.11525   0.00016   0.00000  -0.00225  -0.00208   1.11316
   D39       -3.09324   0.00019   0.00000  -0.00320  -0.00303  -3.09628
   D40       -3.07144   0.00026   0.00000   0.00013   0.00015  -3.07130
   D41       -0.97173   0.00026   0.00000  -0.00200  -0.00198  -0.97370
   D42        1.10297   0.00029   0.00000  -0.00294  -0.00292   1.10005
   D43       -1.04491  -0.00007   0.00000  -0.01181  -0.01130  -1.05621
   D44        1.42015   0.00004   0.00000  -0.01035  -0.00991   1.41024
   D45       -2.30982   0.00012   0.00000  -0.00820  -0.00771  -2.31753
   D46        1.14432  -0.00015   0.00000  -0.00761  -0.00748   1.13684
   D47       -2.67380  -0.00005   0.00000  -0.00615  -0.00610  -2.67989
   D48       -0.12059   0.00003   0.00000  -0.00400  -0.00389  -0.12448
[...]
 61,-0.00001080,0.00002369,0.00000415,0.00000197,0.00004172,-0.00000089
 ,0.00002109,0.00007397,0.00003731,0.00001559,-0.00003123,0.00000946,-0
 .00001465,-0.00001239,-0.00001926,-0.00000474,-0.00001870,-0.00002583,
 0.00031093,-0.00050219,0.00007730,-0.00002198,-0.00000512,-0.00004529,
 -0.00041043,-0.00042110,0.00086052,0.00000837,-0.00029097,0.00013222,0
 .03764561,-0.13194427,-0.07807394,-0.00041770,0.00623892,-0.00075055,0
 .01115423,-0.00636753,-0.00607260,-0.04032690,0.16917664,-0.00067247,-
 0.00025080,-0.00071351,-0.00246649,-0.00724107,0.00271368,0.00012570,0
 .00029154,-0.00007452,0.00025393,0.00023609,-0.00000742,-0.00005452,0.
 00000668,0.00008550,-0.00017797,-0.00017345,0.00018688,0.00008677,-0.0
 0002229,-0.00002362,-0.00081315,-0.00024720,-0.00010229,-0.00000176,-0
 .00013124,-0.00003319,-0.00000933,0.00006900,0.00027613,0.00004836,-0.
 00007873,0.00003489,0.00003013,-0.00001348,0.00002789,-0.00005710,-0.0
 0005353,-0.00000764,0.00006306,0.00002327,-0.00017290,0.00000105,-0.00
 000639,0.00002680,0.00001384,-0.00000049,0.00007499,0.00003128,-0.0000
 2588,-0.00004613,-0.00000391,0.00003986,0.00004724,-0.00001024,0.00000
 793,0.00000432,-0.00005288,0.00001489,0.00001711,-0.00000022,-0.000000
 33,-0.00000142,0.00014306,-0.00003478,-0.00006075,-0.00003168,0.000016
 70,0.00000679,-0.00006038,0.00000079,0.00000726,-0.00003387,0.00002570
 ,0.00005103,0.00000602,0.00003733,-0.00001939,-0.00000521,0.00002212,-
 0.00001348,-0.00000490,-0.00003825,-0.00000047,-0.00003551,0.00000382,
 -0.00055787,-0.00001888,0.00009175,0.00000251,0.00035932,0.00069852,-0
 .00025075,0.00003707,0.00025704,0.00009436,0.03186697,-0.07934679,-0.1
 0309467,0.00930386,-0.01432314,-0.02263766,0.00119789,0.00008798,0.005
 81193,-0.03904949,0.10004926,0.11835223,-0.00007808,0.00021245,-0.0003
 3215,-0.00025442,0.00025482,-0.00018189,-0.00054167,0.00016391,0.00145
 777,0.00043921,0.00204646,0.00164298,-0.01068520,-0.01530248,0.0161574
 4,-0.00391487,0.01913576,-0.00730178,-0.05275410,-0.01622355,0.0066434
 4,0.00001807,0.00005636,0.00006999,-0.00010970,-0.00009995,-0.00010556
 ,-0.00006096,0.00002826,-0.00000881,-0.00003053,-0.00005959,-0.0001205
 9,-0.00085974,-0.00014626,-0.00113421,-0.00011763,-0.00019521,0.000213
 60,-0.00099828,0.00430758,-0.00235507,-0.00059038,-0.00083999,0.000444
 84,-0.00007344,-0.00088117,-0.00006225,0.00021782,0.00015755,0.0000209
 4,-0.00004856,-0.00009596,-0.00007429,0.00005152,-0.00008197,-0.000008
 31,-0.00004215,0.00015994,0.00000804,0.00001356,-0.00005523,0.00001898
 ,0.00007317,0.00012261,-0.00004499,-0.00002071,-0.00001606,0.00000929,
 -0.00002122,-0.00001638,0.00003190,-0.00003173,-0.00003592,-0.00003104
 ,-0.00235681,-0.00342712,0.00781824,-0.00021249,0.00047836,0.00007412,
 -0.00006383,-0.00018435,-0.00021432,0.00025038,-0.00085790,-0.00005508
 ,-0.00027428,0.00025741,-0.00001746,-0.00005360,0.00010424,0.00003435,
 0.00000579,0.00027966,0.00003378,0.00010152,-0.00018822,0.00007504,-0.
 00002002,0.00003263,-0.00002102,-0.00001548,0.00005899,-0.00002039,-0.
 00002481,0.00003925,-0.00000630,0.40437371,0.00007264,-0.00019628,0.00
 016596,0.00017201,0.00018144,-0.00022426,-0.00102445,0.00036796,0.0008
 9995,0.00183749,-0.00043124,0.00069899,-0.01024574,-0.00924291,0.00872
 142,0.01353565,-0.03892132,0.01594354,-0.01477868,-0.14290639,0.072567
 62,0.00001012,0.00016047,-0.00003402,0.00010436,-0.00001628,-0.0001225
 6,-0.00001782,0.00019026,-0.00001209,0.00016148,-0.00010287,-0.0000844
 6,0.00001756,-0.00060401,-0.00003488,0.00007793,-0.00009375,-0.0002583
 0,0.00176094,-0.00275925,0.00049292,-0.00056697,0.00011286,-0.00017107
 ,-0.00021132,0.00021465,-0.00018140,0.00009790,-0.00007258,0.00012537,
 -0.00008252,0.00009114,0.00008235,-0.00023469,0.00000092,-0.00002078,-
 0.00014523,-0.00026582,0.00023843,-0.00010249,-0.00001250,-0.00015210,
 0.00024431,-0.00025589,0.00011101,-0.00011116,0.00002446,-0.00003352,-
 0.00001239,0.00006047,-0.00008371,-0.00002313,0.00006203,0.00000847,-0
 .00188266,0.00404680,0.00558874,-0.00024816,-0.00087966,0.00012313,0.0
 0027233,-0.00011539,-0.00047287,-0.00063243,-0.00076515,-0.00010428,0.
 00009012,0.00017007,-0.00006527,0.00010536,0.00015203,0.00010733,0.000
 24942,0.00008849,0.00007723,-0.00021499,-0.00020367,0.00008898,0.00003
 372,0.00005097,-0.00005702,0.00010118,0.00002512,0.00000543,0.00002660
 ,0.00007328,0.00000897,-0.00057556,0.43405978,-0.00013995,0.00044423,-
 0.00024385,-0.00015563,0.00004519,-0.00037493,-0.00032156,0.00009498,0
 .00040412,0.00141960,0.00083538,0.00168812,0.00879292,0.00386952,-0.00
 515960,-0.00314936,0.01020644,-0.00225293,0.00417375,0.07447288,-0.113
 29375,0.00007352,-0.00000827,0.00009757,-0.00006492,-0.00000277,-0.000
 02889,0.00002011,-0.00002596,-0.00013223,-0.00008349,-0.00012203,-0.00
 004544,0.00033056,0.00012322,-0.00017997,-0.00006872,-0.00029078,-0.00
 001369,-0.00025755,-0.00127801,0.00158271,-0.00025339,0.00001328,-0.00
 062472,0.00013746,0.00017696,-0.00085146,-0.00009797,0.00011545,0.0001
 0913,0.00002312,-0.00003776,-0.00008483,0.00002059,-0.00003217,-0.0000
 6009,0.00010810,-0.00019468,0.00004205,-0.00000410,-0.00007849,-0.0000
 0309,-0.00003532,0.00010493,0.00003716,0.00003866,-0.00001990,0.000000
 06,0.00000597,-0.00002419,0.00001175,-0.00000802,-0.00003751,-0.000047
 19,0.01217156,0.01646345,-0.02892665,-0.00089785,-0.00069352,-0.000294
 47,0.00137103,-0.00009847,-0.00076414,-0.00011947,-0.00057965,0.000521
 78,-0.00003142,0.00018640,-0.00025677,0.00001327,0.00012495,-0.0000666
 6,0.00009162,0.00012233,-0.00011300,0.00010201,0.00000392,0.00020808,-
 0.00002361,-0.00001373,-0.00000463,-0.00003337,0.00002635,-0.00004663,
 0.00000412,-0.00001880,-0.00006647,-0.00858028,-0.02696019,0.42464764,
 -0.00000330,0.00009743,-0.00002397,-0.00000938,-0.00000137,0.00001931,
 -0.00005652,0.00003324,0.00001049,-0.00017417,0.00007376,0.00019081,0.
 00029673,-0.00016087,-0.00062633,0.00222688,-0.00032839,-0.00083255,-0
 .00858290,-0.01376264,0.00680172,0.00002154,0.00000632,-0.00001291,-0.
 00002533,-0.00001277,0.00001011,0.00001660,-0.00003691,-0.00000952,0.0
 0002314,-0.00002560,0.00002583,-0.00009511,-0.00013088,0.00010849,0.00
 001616,-0.00002643,0.00003357,-0.00066273,-0.00060272,0.00032282,-0.00
 008687,0.00057556,-0.00008683,0.00018060,0.00035641,0.00004575,-0.0001
 6940,-0.00002600,-0.00004910,0.00003532,0.00003052,0.00000847,0.000047
 65,0.00005624,0.00000961,0.00007639,-0.00001600,-0.00005832,0.00002864
 ,0.00003034,0.00003246,-0.00011000,0.00001934,0.00000060,0.00002193,-0
 .00000437,0.00000227,0.00002978,-0.00001254,-0.00000890,0.00003034,-0.
 00000396,0.00001719,0.00037172,0.00043218,-0.00018321,-0.00004244,-0.0
 0013874,0.00034584,0.00004443,0.00003661,0.00013209,0.00001054,0.00011
 462,0.00001015,0.00001231,-0.00005711,-0.00001925,-0.00001093,-0.00000
 439,0.00000436,-0.00000542,-0.00004743,-0.00000655,0.00002362,0.000066
 15,-0.00001051,-0.00001365,-0.00002137,-0.00000587,0.00000664,-0.00002
 979,0.00000960,-0.00001578,-0.00001754,0.00000961,-0.16631501,-0.07393
 157,-0.02265506,0.20054746,-0.00008113,0.00015978,-0.00014323,-0.00004
 360,-0.00005119,0.00002185,-0.00001716,0.00011061,0.00005941,0.0002279
 2,0.00043424,0.00016287,-0.00041388,-0.00108715,0.00129548,-0.00050154
 ,-0.00150304,0.00074592,-0.02400087,-0.02520686,0.00886696,0.00001739,
 -0.00002848,0.00002629,-0.00003843,-0.00003210,0.00001736,0.00000350,-
 0.00005770,-0.00000018,-0.00004293,-0.00003245,0.00001936,0.00002179,-
 0.00000559,-0.00011212,-0.00004109,-0.00003719,0.00007944,-0.00027374,
 -0.00038817,-0.00032529,0.00103552,-0.00032604,0.00012234,0.00021845,-
 0.00035741,-0.00018044,-0.00006945,-0.00001481,0.00001432,0.00002198,-
 0.00003965,-0.00004911,0.00012332,0.00001218,0.00000373,0.00002659,-0.
 00002988,-0.00002720,0.00003860,0.00000298,0.00006273,-0.00006839,0.00
 009809,-0.00004851,0.00004346,-0.00001620,0.00001260,0.00000934,-0.000
 01679,0.00002103,0.00000995,-0.00002439,0.00000012,-0.00045449,-0.0000
 1511,-0.00012484,0.00007112,0.00042676,0.00002129,0.00013103,-0.000007
 68,0.00003249,0.00015376,0.00018377,0.00004487,-0.00005218,-0.00010288
 ,-0.00003464,-0.00003867,-0.00003769,-0.00002399,-0.00006135,-0.000045
 32,-0.00002564,0.00006794,0.00008472,-0.00000664,-0.00001314,-0.000022
 25,0.00001548,-0.00002421,-0.00001487,-0.00000287,-0.00000838,-0.00003
 150,-0.00001040,-0.07053916,-0.07493202,-0.01276916,0.09454828,0.09786
 138,0.00003949,-0.00006855,0.00004448,0.00000846,-0.00001934,0.0000490
 6,0.00021709,-0.00011005,-0.00022931,-0.00016240,-0.00024949,-0.000281
 56,0.00031414,0.00146306,-0.00078893,-0.00016897,0.00079136,0.00085149
 ,0.01575002,0.01551065,-0.00097811,-0.00000928,0.00000311,-0.00002350,
 0.00001612,0.00001941,0.00001190,-0.00000924,-0.00000189,0.00002379,0.
 00002968,0.00005425,-0.00000259,-0.00005914,0.00007376,0.00006416,0.00
 002356,0.00006421,0.00001434,0.00015769,0.00032204,-0.00061054,0.00017
 257,-0.00018225,0.00043111,0.00002012,-0.00034990,0.00018750,0.0000386
 8,-0.00003728,-0.00003859,-0.00000894,-0.00000301,0.00000788,0.0000189
 3,0.00001087,0.00002755,-0.00003244,0.00001899,-0.00000328,0.00001188,
 0.00003332,0.00001392,-0.00000209,-0.00001826,-0.00001530,-0.00000180,
 0.00000184,0.00000085,0.00000324,0.00000471,-0.00000340,0.00000494,0.0
 0000382,0.00000952,-0.00024786,-0.00031085,0.00054812,0.00026640,0.000
 21942,-0.00019958,0.00007507,0.00007896,-0.00003306,0.00001708,0.00001
 385,-0.00006040,-0.00002277,-0.00001254,0.00002507,-0.00000871,-0.0000
 0419,0.00001609,-0.00000002,-0.00000471,0.00001277,-0.00001609,-0.0000
 0008,-0.00002163,0.00000251,-0.00000257,-0.00000891,0.00001310,-0.0000
 1072,0.00000453,-0.00000661,0.00000194,0.00001164,-0.02485781,-0.01400
 230,-0.04130540,0.02636756,0.00817631,0.04492229,0.00001891,0.00006034
 ,0.00001106,0.00006282,-0.00005730,0.00014718,-0.00016454,-0.00000386,
 -0.00014141,-0.00020467,-0.00014730,0.00004379,0.00074103,0.00027904,-
 0.00051586,0.00155129,0.00028374,-0.00127948,0.00172494,0.00006476,0.0
 0429800,0.00000219,-0.00000900,-0.00000639,0.00000507,0.00000607,0.000
 01738,0.00002413,-0.00001350,-0.00000035,0.00000410,-0.00002501,0.0000
 6582,-0.00006991,-0.00023843,0.00047968,0.00002373,0.00000647,-0.00000
 973,-0.00047294,-0.00055295,0.00060084,-0.00035702,0.00043210,-0.00039
 473,-0.00023944,0.00085807,0.00011112,-0.00007263,0.00001206,-0.000004
 25,0.00001916,0.00004731,0.00003119,-0.00004503,0.00001260,-0.00001141
 ,0.00004769,-0.00001289,-0.00002893,-0.00000805,0.00001004,-0.00000881
 ,-0.00003422,-0.00002948,0.00002343,-0.00000626,0.00000528,-0.00000591
 ,0.00000829,-0.00000151,-0.00000948,0.00001335,0.00000924,0.00000956,0
 .00038437,-0.00012500,0.00046956,0.00005845,-0.00007376,0.00007056,-0.
 00011361,0.00001811,0.00008301,-0.00010689,0.00041009,-0.00006305,0.00
 012739,-0.00033199,-0.00001491,0.00002406,-0.00007658,-0.00001928,-0.0
 0006468,-0.00016399,0.00001734,-0.00000748,0.00006014,-0.00007710,0.00
 000244,-0.00000148,0.00001696,-0.00000861,-0.00001435,0.00001742,0.000
 00591,-0.00001670,0.00000633,-0.03676516,-0.00240651,-0.00488168,-0.00
 239643,-0.01022628,-0.01968281,0.03541862,-0.00002832,0.00005478,-0.00
 008648,-0.00000699,-0.00008857,0.00017772,0.00014448,-0.00001122,-0.00
 015136,-0.00012990,-0.00000116,-0.00029575,-0.00002882,0.00031822,0.00
 043957,-0.00017093,-0.00013741,0.00200752,0.00027261,-0.00049628,0.025
 31010,-0.00000581,-0.00004325,0.00001552,-0.00000869,-0.00001825,0.000
 03279,0.00001105,-0.00005486,0.00003964,-0.00004717,0.00001601,0.00003
 112,-0.00007070,0.00015768,-0.00007998,-0.00001025,0.00003368,0.000034
 95,0.00001987,-0.00017775,-0.00009914,0.00028145,0.00008444,0.00011315
 ,0.00047355,-0.00032405,-0.00012939,-0.00004337,-0.00003668,-0.0000260
 0,0.00002485,-0.00001997,-0.00000599,0.00005944,0.00000800,0.00001146,
 -0.00000921,0.00000036,-0.00002413,0.00001803,0.00000699,0.00003367,-0
 .00003136,0.00003869,-0.00004956,0.00002977,-0.00000426,0.00001222,-0.
 00000462,-0.00000482,0.00002572,0.00000332,-0.00000713,0.00000678,-0.0
 0071154,-0.00154995,0.00142281,0.00013825,0.00006287,-0.00011455,-0.00
 019930,0.00000734,0.00018631,0.00021344,0.00023297,-0.00004940,-0.0001
 9856,-0.00040942,-0.00005587,-0.00005162,-0.00009781,-0.00003524,-0.00
 013831,-0.00003964,-0.00001310,0.00004679,0.00008666,-0.00008965,-0.00
 000368,-0.00001226,0.00002601,-0.00003253,-0.00001094,0.00001226,-0.00
 000216,-0.00002917,0.00000824,-0.00209041,-0.05119902,-0.05199372,-0.0
 0510033,-0.00226249,-0.01237685,0.00220093,0.06227558,0.00009744,-0.00
 001915,-0.00003470,0.00005282,0.00005065,0.00020332,-0.00017512,-0.000
 10095,-0.00000831,0.00017378,-0.00027208,0.00005807,0.00036730,-0.0001
 0492,0.00008052,-0.00107897,0.00142686,0.00026971,0.00223708,0.0098903
 9,-0.03576494,-0.00001572,0.00002394,-0.00000563,0.00002813,0.00000564
 ,-0.00000281,-0.00001282,0.00002837,0.00008398,0.00005376,0.00001454,0
 .00002171,0.00022977,0.00004344,0.00005512,0.00002671,0.00002228,-0.00
 001334,-0.00010265,0.00006477,-0.00099287,-0.00016976,0.00010063,0.000
 23913,-0.00004609,0.00007959,0.00055090,0.00006560,-0.00005678,-0.0000
 6314,-0.00000752,0.00004321,0.00008680,-0.00004131,0.00000224,0.000030
 36,-0.00007927,-0.00003566,0.00003015,0.00000100,0.00002810,-0.0000063
 1,0.00006050,-0.00009239,-0.00003814,-0.00001701,0.00001519,-0.0000008
 3,-0.00001944,0.00001913,0.00000614,-0.00000025,0.00003101,0.00003132,
 -0.00011033,0.00081958,-0.00061164,-0.00005081,0.00004957,-0.00012293,
 0.00015733,-0.00001516,-0.00021048,0.00002337,0.00009259,-0.00041330,0
 .00009420,0.00013808,0.00025706,-0.00001545,-0.00005283,0.00008639,-0.
 00003471,-0.00003280,0.00011212,-0.00004847,-0.00004806,-0.00014599,0.
 00001129,0.00001461,0.00002662,0.00001746,0.00000280,0.00003424,-0.000
 00002,0.00001431,0.00003855,-0.00519973,-0.04736501,-0.19566162,-0.006
 90258,-0.00765170,-0.00788376,0.00499924,0.05214670,0.24698270,-0.0000
 0756,0.00002957,0.00001736,0.00010481,-0.00004300,0.00004160,-0.000342
 25,0.00007240,-0.00002123,0.00006398,-0.00017261,-0.00003124,0.0008739
 0,-0.00058227,-0.00035948,0.00038003,-0.00052683,0.00047424,0.00109707
 ,0.00592020,-0.00302528,-0.00000249,-0.00002500,0.00002041,0.00003163,
 -0.00000071,0.00000225,0.00001214,0.00000457,-0.00001642,0.00005120,-0
 .00006387,0.00003840,-0.00022243,-0.00078455,0.00048387,0.00001789,0.0
 0002859,-0.00003820,-0.00013528,-0.00020411,0.00018450,-0.00004132,0.0
 0019856,-0.00002426,-0.00002259,0.00016145,0.00002046,-0.00000652,-0.0
 0003233,0.00000321,-0.00000978,0.00000052,-0.00001251,0.00002297,0.000
 02958,0.00000927,0.00001506,-0.00003070,0.00000392,-0.00000691,0.00002
 561,0.00000019,-0.00000600,-0.00007650,0.00000759,0.00000057,0.0000242
 4,-0.00000665,-0.00000489,0.00002131,-0.00000707,-0.00000287,0.0000136
 4,-0.00000545,0.00048852,0.00027897,0.00000220,0.00037063,-0.00009284,
 0.00005681,-0.00003746,0.00003348,0.00000362,-0.00015322,0.00017333,-0
 .00001180,0.00007780,-0.00004024,0.00000131,0.00002523,-0.00003588,-0.
 00001230,0.00004446,-0.00009041,0.00000370,-0.00007177,0.00003137,-0.0
 0001883,0.00001436,0.00000510,0.00001845,0.00002286,-0.00000602,0.0000
 0895,0.00002658,-0.00001145,-0.00001781,-0.12821047,0.08847693,0.01296
 498,-0.02529273,0.01024006,0.00172875,0.00086979,0.00518680,0.00543132
 ,0.14996517,-0.00004558,0.00012145,-0.00007653,-0.00004281,-0.00007982
 ,0.00003171,0.00018505,0.00004293,-0.00017380,0.00019293,0.00005380,-0
 .00013292,-0.00032586,-0.00108031,0.00086728,0.00050553,-0.00232637,0.
 00141931,0.01694995,-0.03172893,0.01055815,0.00001405,-0.00002941,-0.0
 0000041,-0.00002726,-0.00001930,0.00004697,0.00000629,-0.00006559,0.00
 001783,-0.00011375,0.00000361,0.00003695,-0.00096132,-0.00029278,0.000
 25760,-0.00001249,-0.00001970,0.00004293,-0.00031603,0.00018364,0.0000
 7616,0.00021474,-0.00000099,0.00003642,0.00012377,-0.00011364,-0.00006
 175,-0.00007788,0.00003721,-0.00001358,0.00003592,-0.00001622,-0.00000
 454,0.00003962,-0.00001698,-0.00000300,-0.00000877,-0.00006786,-0.0000
 0277,0.00002323,-0.00001303,0.00003508,-0.00003395,0.00011851,-0.00003
 536,0.00003344,-0.00002958,0.00001228,0.00000519,-0.00002599,0.0000225
 6,0.00000904,-0.00002321,0.00000449,-0.00008648,-0.00064437,0.00061375
 ,-0.00008290,0.00061955,0.00039495,0.00012386,0.00002101,0.00006340,0.
 00016383,0.00030434,0.00008409,-0.00000961,-0.00017735,-0.00004729,-0.
 00003637,-0.00004995,-0.00003643,-0.00011543,-0.00008134,-0.00005115,0
 .00010066,0.00011706,-0.00000987,-0.00001439,-0.00002971,0.00001274,-0
 .00005364,-0.00001796,-0.00001066,-0.00001558,-0.00002872,0.00000082,0
 .08401598,-0.11615665,-0.01215139,-0.00197703,0.00735263,0.00089932,0.
 00975170,-0.00634772,-0.00932052,-0.10813758,0.15050766,0.00004852,0.0
 0000532,-0.00001094,-0.00000450,0.00000058,0.00012063,0.00001809,-0.00
 012258,-0.00010205,-0.00020852,0.00003225,0.00009987,0.00019801,0.0010
 3672,0.00016465,-0.00013410,0.00241240,-0.00086971,-0.01078688,0.01914
 175,-0.00211238,-0.00000892,0.00001264,-0.00001371,-0.00000368,0.00001
 658,0.00000217,-0.00000495,0.00000314,0.00002285,0.00003291,0.00002905
 ,0.00002920,0.00041343,0.00019530,0.00028043,0.00000620,0.00002253,0.0
 0004477,0.00021018,-0.00009206,-0.00031837,-0.00002369,-0.00001122,0.0
 0009225,0.00004890,-0.00003450,0.00015877,0.00002908,-0.00002435,-0.00
 001713,-0.00000092,0.00002174,0.00002703,-0.00002556,0.00000251,0.0000
 0570,-0.00000312,0.00004394,-0.00001679,0.00000048,0.00001676,-0.00000
 234,0.00000135,-0.00001275,0.00000474,-0.00001700,-0.00000225,-0.00000
 252,0.00000494,-0.00000219,-0.00000795,0.00000670,0.00000294,0.0000099
 9,-0.00065250,0.00060313,-0.00040193,0.00016571,0.00042622,-0.00116977
 ,0.00002816,0.00004983,-0.00014718,-0.00001253,0.00017253,-0.00013897,
 0.00002550,-0.00011285,0.00005229,0.00000256,-0.00003348,0.00001197,-0
 .00001991,-0.00006906,0.00003641,-0.00000523,-0.00001864,-0.00006260,0
 .00000238,0.00000976,0.00000321,0.00000528,-0.00000198,0.00001235,-0.0
 0000488,0.00000411,0.00001276,0.01597845,-0.01561689,-0.03844711,-0.00
 302724,0.00171388,0.00520980,0.01563610,-0.01641775,-0.00730398,-0.017
 91873,0.00659740,0.04474367\\0.00003430,0.00006185,-0.00001514,0.00002
 998,0.00005339,0.00001588,-0.00002315,0.00000178,-0.00001559,-0.000046
 36,-0.00000364,-0.00001869,-0.00004702,-0.00003913,-0.00002864,-0.0000
 1248,-0.00001240,-0.00000099,0.00003103,-0.00006346,-0.00001533,0.0000
 2077,0.00003277,-0.00004132,-0.00000461,-0.00000088,-0.00000594,-0.000
 02587,0.00004947,0.00006411,0.00000382,-0.00000061,-0.00000028,-0.0000
 0046,0.00000153,-0.00000965,-0.00001101,-0.00000018,-0.00002530,-0.000
 10451,-0.00002086,0.00007078,0.00002555,0.00003624,0.00001112,-0.00002
 052,0.00001505,-0.00003029,0.00005408,-0.00006779,0.00000422,0.0000212
 6,-0.00002365,-0.00000462,0.00003704,-0.00000948,0.00000193,0.00005890
 ,-0.00005741,-0.00001027,0.00001384,-0.00000712,-0.00000081,0.00007234
 ,0.00001403,0.00001762,0.00000971,-0.00000878,0.00000234,0.00000823,-0
 .00000501,0.00000490,0.00001181,0.00000054,-0.00000050,0.00000195,-0.0
 0000640,-0.00005004,-0.00000451,0.00001127,0.00000535,-0.00000318,0.00
 000438,-0.00000591,0.00000091,0.00005928,0.00005437,-0.00001065,-0.000
 00588,0.00002143,-0.00001293,-0.00000579,0.00000540,0.00001283,-0.0000
 0707,0.00001281,-0.00006715,-0.00001233,-0.00001298,-0.00001298,-0.000
 00413,0.00000145,-0.00000035,-0.00000133,0.00000008,-0.00001079,-0.000
 00890,-0.00000484,-0.00002574,0.00001053,0.00000227,-0.00000212,0.0000
 0712,-0.00000014,-0.00000231,0.00000477,0.00000245,0.00000032,0.000008
 23,-0.00000124\\\@
 The archive entry for this job was punched.


 CHEMISTRY BEGAN BY SAYING IT WOULD CHANGE THE BASER
 METALS INTO GOLD.  BY NOT DOING THAT IT HAS DONE MUCH
 GREATER THINGS.  --  RALPH WALDO EMERSON
 Job cpu time:       0 days  0 hours  0 minutes  2.3 seconds.
 Elapsed time:       0 days  0 hours  0 minutes  0.9 seconds.
 File lengths (MBytes):  RWF=    114 Int=      0 D2E=      0 Chk=      9 Scr=      1
 Normal termination of Gaussian 16 at Thu Mar 27 17:21:52 2025.
