 Entering Gaussian System, Link 0=g16
 Input=IM5_tsopt_Ropt.com
 Output=IM5_tsopt_Ropt.log
 Initial command:
 /home/apps/g16_C02_zen2/g16/l1.exe "/dev/shm/Gau-1295176.inp" -scrdir="/dev/shm/"
 Default CPUs for threads: 8,9,10,11,12,13,14,15
 Default is to use a total of   8 processors:
                                8 via shared-memory
                                1 via Linda
 Entering Link 1 = /home/apps/g16_C02_zen2/g16/l1.exe PID=   1295177.
  
 Copyright (c) 1988-2021, Gaussian, Inc.  All Rights Reserved.
  
 This is part of the Gaussian(R) 16 program.  It is based on
 the Gaussian(R) 09 system (copyright 2009, Gaussian, Inc.),
 the Gaussian(R) 03 system (copyright 2003, Gaussian, Inc.),
 the Gaussian(R) 98 system (copyright 1998, Gaussian, Inc.),
 the Gaussian(R) 94 system (copyright 1995, Gaussian, Inc.),
 the Gaussian 92(TM) system (copyright 1992, Gaussian, Inc.),
 the Gaussian 90(TM) system (copyright 1990, Gaussian, Inc.),
 the Gaussian 88(TM) system (copyright 1988, Gaussian, Inc.),
 the Gaussian 86(TM) system (copyright 1986, Carnegie Mellon
 University), and the Gaussian 82(TM) system (copyright 1983,
 Carnegie Mellon University). Gaussian is a federally registered
 trademark of Gaussian, Inc.
  
 This software contains proprietary and confidential information,
 including trade secrets, belonging to Gaussian, Inc.
  
 This software is provided under written license and may be
 used, copied, transmitted, or stored only in accord with that
 written license.
  
 The following legend is applicable only to US Government
 contracts under FAR:
  
                    RESTRICTED RIGHTS LEGEND
  
 Use, reproduction and disclosure by the US Government is
 subject to restrictions as set forth in subparagraphs (a)
 and (c) of the Commercial Computer Software - Restricted
 Rights clause in FAR 52.227-19.
  
 Gaussian, Inc.
 340 Quinnipiac St., Bldg. 40, Wallingford CT 06492
  
  
 ---------------------------------------------------------------
 Warning -- This program may not be used in any manner that
 competes with the business of Gaussian, Inc. or will provide
 assistance to any competitor of Gaussian, Inc.  The licensee
 of this program is prohibited from giving any competitor of
 Gaussian, Inc. access to this program.  By using this program,
 the user acknowledges that Gaussian, Inc. is engaged in the
 business of creating and licensing software in the field of
 computational chemistry and represents and warrants to the
 licensee that it is not a competitor of Gaussian, Inc. and that
 it will not use this program in any manner prohibited above.
 ---------------------------------------------------------------
  

 Cite this work as:
 Gaussian 16, Revision C.02,
 M. J. Frisch, G. W. Trucks, H. B. Schlegel, G. E. Scuseria, 
 M. A. Robb, J. R. Cheeseman, G. Scalmani, V. Barone, 
 G. A. Petersson, H. Nakatsuji, X. Li, M. Caricato, A. V. Marenich, 
 J. Bloino, B. G. Janesko, R. Gomperts, B. Mennucci, H. P. Hratchian, 
 J. V. Ortiz, A. F. Izmaylov, J. L. Sonnenberg, D. Williams-Young, 
 F. Ding, F. Lipparini, F. Egidi, J. Goings, B. Peng, A. Petrone, 
 T. Henderson, D. Ranasinghe, V. G. Zakrzewski, J. Gao, N. Rega, 
 G. Zheng, W. Liang, M. Hada, M. Ehara, K. Toyota, R. Fukuda, 
 J. Hasegawa, M. Ishida, T. Nakajima, Y. Honda, O. Kitao, H. Nakai, 
 T. Vreven, K. Throssell, J. A. Montgomery, Jr., J. E. Peralta, 
 F. Ogliaro, M. J. Bearpark, J. J. Heyd, E. N. Brothers, K. N. Kudin, 
 V. N. Staroverov, T. A. Keith, R. Kobayashi, J. Normand, 
 K. Raghavachari, A. P. Rendell, J. C. Burant, S. S. Iyengar, 
 J. Tomasi, M. Cossi, J. M. Millam, M. Klene, C. Adamo, R. Cammi, 
 J. W. Ochterski, R. L. Martin, K. Morokuma, O. Farkas, 
 J. B. Foresman, and D. J. Fox, Gaussian, Inc., Wallingford CT, 2019.
 
 ******************************************
 Gaussian 16:  AS64L-G16RevC.02  7-Dec-2021
                27-Mar-2025 
 ******************************************
 %nosave
 %chk=IM5_tsopt_Ropt.chk
 SetSPE:  set environment variable "OMP_PROC_BIND" = "true"
 SetSPE:  set environment variable "OMP_PLACES" = "{8},{9},{10},{11},{12},{13},{14},{15}"
 -------------------------------------------------------------
 #p PM7 opt=readfc geom=check guess=read freq=noraman pop=none
 -------------------------------------------------------------
 1/10=3,18=20,19=15,26=1,29=2,38=1/1,3;
 2/9=110,12=2,40=1/2;
 3/5=2,14=-4,25=1,41=4200000,71=1,116=-2/1,2,3;
 4/5=1,35=1/1;
 5/5=2,35=1,38=6/2;
 7//1,2,3,16;
 1/18=20,19=15,26=1/3(2);
 2/9=110/2;
 99//99;
 2/9=110/2;
 3/5=2,14=-2,25=1,41=4200000,71=1,135=20/1,2,3;
 4/5=5,16=3,35=1/1;
 5/5=2,35=1,38=5/2;
 7//1,2,3,16;
 1/18=20,19=15,26=1/3(-5);
 2/9=110/2;
 99/9=1/99;
 Leave Link    1 at Thu Mar 27 17:21:41 2025, MaxMem=           0 cpu:               0.0 elap:               0.0
 (Enter /home/apps/g16_C02_zen2/g16/l101.exe)
 -----
 title
 -----
 Structure from the checkpoint file:  "IM5_tsopt_Ropt.chk"
 Charge =  1 Multiplicity = 1
 No Z-Matrix found in chk file; cartesian coordinates used.
  C                                                -0.419109072803     -1.568835623231      0.204250506524
  C                                                -1.851847907894     -0.992593477330     -0.006077889970
  C                                                -2.079171096133      0.276889999290      0.838130211279
  C                                                 0.748038418489     -0.721172090605      0.285641273908
  C                                                -1.594524393458      1.503327044084      0.116110570840
  C                                                 0.867250057830      0.727763777156      0.518863984256
  C                                                -0.100477276513      1.688907082017     -0.137843484247
  H                                                -0.445841085031     -2.212156125733      1.138011906242
  H                                                -1.624042183601      0.170078923289      1.838581945627
  H                                                -0.270035685799     -2.366067743651     -0.584080091942
  H                                                -3.168734828052      0.393671124745      1.049982015708
  H                                                -2.282883845760      1.801119540445     -0.693731047520
  H                                                 0.695074091230      0.824320157836      1.655075522666
  C                                                 2.359567560214      1.063781309462      0.278004255685
  H                                                 2.690393452182      1.911148720456      0.904868215096
  H                                                 2.543309970290      1.384452234515     -0.764594482950
  C                                                 3.112376751249     -0.233955589038      0.590693765619
  H                                                 4.025059448436     -0.333530411762     -0.027426428863
  H                                                 3.472727581473     -0.252561309958      1.636643750985
  C                                                 2.102332056248     -1.371749996539      0.326967590412
  H                                                 2.150909685133     -2.123436497809      1.163487948879
  C                                                 2.395058719781     -2.104116648041     -0.981879735639
  H                                                 3.421124089538     -2.514911312509     -0.973847569980
  H                                                 1.728087549025     -2.958068384609     -1.154713655438
  H                                                 2.337890359974     -1.441132460063     -1.856424141099
  C                                                -0.855314599053      2.615024535986      0.810903207375
  H                                                -1.039760594441      3.649251781668      0.512681774885
  H                                                -0.674938942120      2.584047906776      1.881447442945
  C                                                -2.067125333495     -0.743190274399     -1.501138238214
  H                                                -1.307093366620     -0.083229947491     -1.932494173324
  H                                                -2.062421361646     -1.675518857831     -2.080133264521
  H                                                -3.044379979577     -0.272039976901     -1.686653698466
  C                                                -2.843063742901     -2.072021751224      0.459396240023
  H                                                -2.789077961020     -2.256557081906      1.538135219089
  H                                                -3.880281957229     -1.771426416897      0.244259902765
  H                                                -2.692505219064     -3.028286877546     -0.055385674401
  C                                                 0.308451942519      2.220642087873     -1.482751339370
  H                                                 1.142692864048      2.935320693955     -1.406453810760
  H                                                 0.604110167447      1.425258972433     -2.176815282613
  H                                                -0.511006015511      2.772747334763     -1.971926434440
 Recover connectivity data from disk.
 ITRead=  0  0  0  0  0  0  0  0  0  0  0  0  0  0  0  0  0  0  0  0
 ITRead=  0  0  0  0  0  0  0  0  0  0  0  0  0  0  0  0  0  0  0  0
 MicOpt= -1 -1 -1 -1 -1 -1 -1 -1 -1 -1 -1 -1 -1 -1 -1 -1 -1 -1 -1 -1
 MicOpt= -1 -1 -1 -1 -1 -1 -1 -1 -1 -1 -1 -1 -1 -1 -1 -1 -1 -1 -1 -1
 NAtoms=     40 NQM=       40 NQMF=       0 NMMI=      0 NMMIF=      0
                NMic=       0 NMicF=      0.
                    Isotopes and Nuclear Properties:
 (Nuclear quadrupole moments (NQMom) in fm**2, nuclear magnetic moments (NMagM)
  in nuclear magnetons)

  Atom         1           2           3           4           5           6           7           8           9          10
 IAtWgt=          12          12          12          12          12          12          12           1           1           1
 AtmWgt=  12.0000000  12.0000000  12.0000000  12.0000000  12.0000000  12.0000000  12.0000000   1.0078250   1.0078250   1.0078250
 NucSpn=           0           0           0           0           0           0           0           1           1           1
 AtZEff=   3.9000000   3.9000000   3.9000000   3.9000000   3.9000000   3.9000000   3.9000000   1.0000000   1.0000000   1.0000000
 NQMom=    0.0000000   0.0000000   0.0000000   0.0000000   0.0000000   0.0000000   0.0000000   0.0000000   0.0000000   0.0000000
 NMagM=    0.0000000   0.0000000   0.0000000   0.0000000   0.0000000   0.0000000   0.0000000   2.7928460   2.7928460   2.7928460
 AtZNuc=   6.0000000   6.0000000   6.0000000   6.0000000   6.0000000   6.0000000   6.0000000   1.0000000   1.0000000   1.0000000

  Atom        11          12          13          14          15          16          17          18          19          20
 IAtWgt=           1           1           1          12           1           1          12           1           1          12
 AtmWgt=   1.0078250   1.0078250   1.0078250  12.0000000   1.0078250   1.0078250  12.0000000   1.0078250   1.0078250  12.0000000
 NucSpn=           1           1           1           0           1           1           0           1           1           0
 AtZEff=   1.0000000   1.0000000   1.0000000   3.9000000   1.0000000   1.0000000   3.9000000   1.0000000   1.0000000   3.9000000
 NQMom=    0.0000000   0.0000000   0.0000000   0.0000000   0.0000000   0.0000000   0.0000000   0.0000000   0.0000000   0.0000000
 NMagM=    2.7928460   2.7928460   2.7928460   0.0000000   2.7928460   2.7928460   0.0000000   2.7928460   2.7928460   0.0000000
 AtZNuc=   1.0000000   1.0000000   1.0000000   6.0000000   1.0000000   1.0000000   6.0000000   1.0000000   1.0000000   6.0000000

  Atom        21          22          23          24          25          26          27          28          29          30
 IAtWgt=           1          12           1           1           1          12           1           1          12           1
 AtmWgt=   1.0078250  12.0000000   1.0078250   1.0078250   1.0078250  12.0000000   1.0078250   1.0078250  12.0000000   1.0078250
 NucSpn=           1           0           1           1           1           0           1           1           0           1
 AtZEff=   1.0000000   3.9000000   1.0000000   1.0000000   1.0000000   3.9000000   1.0000000   1.0000000   3.9000000   1.0000000
 NQMom=    0.0000000   0.0000000   0.0000000   0.0000000   0.0000000   0.0000000   0.0000000   0.0000000   0.0000000   0.0000000
 NMagM=    2.7928460   0.0000000   2.7928460   2.7928460   2.7928460   0.0000000   2.7928460   2.7928460   0.0000000   2.7928460
 AtZNuc=   1.0000000   6.0000000   1.0000000   1.0000000   1.0000000   6.0000000   1.0000000   1.0000000   6.0000000   1.0000000

  Atom        31          32          33          34          35          36          37          38          39          40
 IAtWgt=           1           1          12           1           1           1          12           1           1           1
 AtmWgt=   1.0078250   1.0078250  12.0000000   1.0078250   1.0078250   1.0078250  12.0000000   1.0078250   1.0078250   1.0078250
 NucSpn=           1           1           0           1           1           1           0           1           1           1
 AtZEff=   1.0000000   1.0000000   3.9000000   1.0000000   1.0000000   1.0000000   3.9000000   1.0000000   1.0000000   1.0000000
 NQMom=    0.0000000   0.0000000   0.0000000   0.0000000   0.0000000   0.0000000   0.0000000   0.0000000   0.0000000   0.0000000
 NMagM=    2.7928460   2.7928460   0.0000000   2.7928460   2.7928460   2.7928460   0.0000000   2.7928460   2.7928460   2.7928460
 AtZNuc=   1.0000000   1.0000000   6.0000000   1.0000000   1.0000000   1.0000000   6.0000000   1.0000000   1.0000000   1.0000000
 Leave Link  101 at Thu Mar 27 17:21:41 2025, MaxMem=  8053063680 cpu:               0.2 elap:               0.2
 (Enter /home/apps/g16_C02_zen2/g16/l103.exe)

 GradGradGradGradGradGradGradGradGradGradGradGradGradGradGradGradGradGrad
 Berny optimization.
 Initialization pass.
 No redundant coordinates on chk file, so ReadFC converted to ReadCartesianFC.
 Cartesian force constants read from checkpoint file:
 "IM5_tsopt_Ropt.chk"
 FormGI is forming the generalized inverse of G from B-inverse, IUseBI=4.
                           ----------------------------
                           !    Initial Parameters    !
                           ! (Angstroms and Degrees)  !
 --------------------------                            --------------------------
 ! Name  Definition              Value          Derivative Info.                !
 --------------------------------------------------------------------------------
 ! R1    R(1,2)                  1.5585         D2E/DX2 =    0.2776             !
 ! R2    R(1,4)                  1.4448         D2E/DX2 =    0.3465             !
 ! R3    R(1,8)                  1.1342         D2E/DX2 =    0.2528             !
 ! R4    R(1,10)                 1.131          D2E/DX2 =    0.2498             !
 ! R5    R(2,3)                  1.5414         D2E/DX2 =    0.2823             !
 ! R6    R(2,29)                 1.5309         D2E/DX2 =    0.3492             !
 ! R7    R(2,33)                 1.5376         D2E/DX2 =    0.3434             !
 ! R8    R(3,5)                  1.5034         D2E/DX2 =    0.3369             !
 ! R9    R(3,9)                  1.1043         D2E/DX2 =    0.2622             !
 ! R10   R(3,11)                 1.1161         D2E/DX2 =    0.2576             !
 ! R11   R(4,6)                  1.4724         D2E/DX2 =    0.3324             !
 ! R12   R(4,20)                 1.503          D2E/DX2 =    0.256              !
 ! R13   R(5,7)                  1.5268         D2E/DX2 =    0.1513             !
 ! R14   R(5,12)                 1.1038         D2E/DX2 =    0.2651             !
 ! R15   R(5,26)                 1.505          D2E/DX2 =    0.185              !
 ! R16   R(6,7)                  1.5138         D2E/DX2 =    0.3524             !
 ! R17   R(6,13)                 1.1532         D2E/DX2 =    0.1534             !
 ! R18   R(6,14)                 1.5485         D2E/DX2 =    0.2749             !
 ! R19   R(7,26)                 1.5256         D2E/DX2 =    0.1802             !
 ! R20   R(7,37)                 1.5029         D2E/DX2 =    0.385              !
 ! R21   R(14,15)                1.1047         D2E/DX2 =    0.2567             !
 ! R22   R(14,16)                1.1062         D2E/DX2 =    0.252              !
 ! R23   R(14,17)                1.5325         D2E/DX2 =    0.2819             !
 ! R24   R(17,18)                1.1068         D2E/DX2 =    0.2597             !
 ! R25   R(17,19)                1.1064         D2E/DX2 =    0.26               !
 ! R26   R(17,20)                1.5441         D2E/DX2 =    0.2665             !
 ! R27   R(20,21)                1.1257         D2E/DX2 =    0.2603             !
 ! R28   R(20,22)                1.5281         D2E/DX2 =    0.3624             !
 ! R29   R(22,23)                1.1053         D2E/DX2 =    0.26               !
 ! R30   R(22,24)                1.0972         D2E/DX2 =    0.2614             !
 ! R31   R(22,25)                1.0989         D2E/DX2 =    0.2619             !
 ! R32   R(26,27)                1.0921         D2E/DX2 =    0.2619             !
 ! R33   R(26,28)                1.0861         D2E/DX2 =    0.2654             !
 ! R34   R(29,30)                1.0951         D2E/DX2 =    0.264              !
 ! R35   R(29,31)                1.0975         D2E/DX2 =    0.2617             !
 ! R36   R(29,32)                1.1006         D2E/DX2 =    0.262              !
 ! R37   R(33,34)                1.0957         D2E/DX2 =    0.2628             !
 ! R38   R(33,35)                1.1011         D2E/DX2 =    0.2616             !
 ! R39   R(33,36)                1.0964         D2E/DX2 =    0.2625             !
 ! R40   R(37,38)                1.1012         D2E/DX2 =    0.2607             !
 ! R41   R(37,39)                1.0963         D2E/DX2 =    0.2578             !
 ! R42   R(37,40)                1.1026         D2E/DX2 =    0.2574             !
 ! A1    A(2,1,4)              122.2294         D2E/DX2 =    0.0486             !
 ! A2    A(2,1,8)              107.406          D2E/DX2 =    0.0549             !
 ! A3    A(2,1,10)             106.7211         D2E/DX2 =    0.0545             !
 ! A4    A(4,1,8)              107.7843         D2E/DX2 =    0.049              !
 ! A5    A(4,1,10)             110.2635         D2E/DX2 =    0.0471             !
 ! A6    A(8,1,10)             100.202          D2E/DX2 =    0.0129             !
 ! A7    A(1,2,3)              111.4795         D2E/DX2 =    0.0214             !
 ! A8    A(1,2,29)             108.7411         D2E/DX2 =    0.0243             !
 ! A9    A(1,2,33)             106.9895         D2E/DX2 =    0.0282             !
 ! A10   A(3,2,29)             112.3302         D2E/DX2 =    0.0287             !
 ! A11   A(3,2,33)             108.4994         D2E/DX2 =    0.0255             !
 ! A12   A(29,2,33)            108.6231         D2E/DX2 =    0.0276             !
 ! A13   A(2,3,5)              111.1787         D2E/DX2 =    0.0497             !
 ! A14   A(2,3,9)              110.839          D2E/DX2 =    0.0392             !
 ! A15   A(2,3,11)             109.5181         D2E/DX2 =    0.0354             !
 ! A16   A(5,3,9)              112.4037         D2E/DX2 =    0.0348             !
 ! A17   A(5,3,11)             108.693          D2E/DX2 =    0.0399             !
 ! A18   A(9,3,11)             103.9162         D2E/DX2 =    0.0118             !
 ! A19   A(1,4,6)              130.6682         D2E/DX2 =    0.0517             !
 ! A20   A(1,4,20)             118.3915         D2E/DX2 =    0.0738             !
 ! A21   A(6,4,20)             110.404          D2E/DX2 =    0.054              !
 ! A22   A(3,5,7)              119.6352         D2E/DX2 =    0.0272             !
 ! A23   A(3,5,12)             111.8019         D2E/DX2 =    0.0323             !
 ! A24   A(3,5,26)             122.6288         D2E/DX2 =    0.041              !
 ! A25   A(7,5,12)             117.0923         D2E/DX2 =    0.0285             !
 ! A26   A(12,5,26)            116.4702         D2E/DX2 =    0.0353             !
 ! A27   A(4,6,7)              120.2867         D2E/DX2 =    0.0329             !
 ! A28   A(4,6,13)             103.0829         D2E/DX2 =   -0.0005             !
 ! A29   A(4,6,14)             105.481          D2E/DX2 =    0.0459             !
 ! A30   A(7,6,13)             106.1893         D2E/DX2 =    0.0125             !
 ! A31   A(7,6,14)             114.2564         D2E/DX2 =    0.0534             !
 ! A32   A(13,6,14)            106.198          D2E/DX2 =    0.012              !
 ! A33   A(5,7,6)              118.4395         D2E/DX2 =    0.0291             !
 ! A34   A(5,7,37)             117.2648         D2E/DX2 =    0.0356             !
 ! A35   A(6,7,26)             115.5905         D2E/DX2 =    0.0393             !
 ! A36   A(6,7,37)             116.0341         D2E/DX2 =    0.0515             !
 ! A37   A(26,7,37)            118.4466         D2E/DX2 =    0.0398             !
 ! A38   A(6,14,15)            111.5167         D2E/DX2 =    0.0306             !
 ! A39   A(6,14,16)            111.6901         D2E/DX2 =    0.0299             !
 ! A40   A(6,14,17)            104.946          D2E/DX2 =    0.059              !
 ! A41   A(15,14,16)           105.2318         D2E/DX2 =    0.0125             !
 ! A42   A(15,14,17)           112.7458         D2E/DX2 =    0.0302             !
 ! A43   A(16,14,17)           110.8668         D2E/DX2 =    0.0275             !
 ! A44   A(14,17,18)           111.5497         D2E/DX2 =    0.0308             !
 ! A45   A(14,17,19)           111.5372         D2E/DX2 =    0.0294             !
 ! A46   A(14,17,20)           105.5334         D2E/DX2 =    0.0571             !
 ! A47   A(18,17,19)           104.9436         D2E/DX2 =    0.0129             !
 ! A48   A(18,17,20)           112.1929         D2E/DX2 =    0.0322             !
 ! A49   A(19,17,20)           111.2294         D2E/DX2 =    0.0286             !
 ! A50   A(4,20,17)            105.9707         D2E/DX2 =    0.0397             !
 ! A51   A(4,20,21)            110.3867         D2E/DX2 =    0.016              !
 ! A52   A(4,20,22)            110.8855         D2E/DX2 =    0.039              !
 ! A53   A(17,20,21)           109.6878         D2E/DX2 =    0.0183             !
 ! A54   A(17,20,22)           111.9705         D2E/DX2 =    0.0455             !
 ! A55   A(21,20,22)           107.9505         D2E/DX2 =    0.0233             !
 ! A56   A(20,22,23)           110.4711         D2E/DX2 =    0.0976             !
 ! A57   A(20,22,24)           113.0457         D2E/DX2 =    0.0956             !
 ! A58   A(20,22,25)           112.4899         D2E/DX2 =    0.0979             !
 ! A59   A(23,22,24)           106.0326         D2E/DX2 =    0.0442             !
 ! A60   A(23,22,25)           106.1591         D2E/DX2 =    0.0436             !
 ! A61   A(24,22,25)           108.2132         D2E/DX2 =    0.0471             !
 ! A62   A(5,26,27)            119.3751         D2E/DX2 =    0.0299             !
 ! A63   A(5,26,28)            121.0348         D2E/DX2 =    0.0345             !
 ! A64   A(7,26,27)            119.2508         D2E/DX2 =    0.0293             !
 ! A65   A(7,26,28)            120.8965         D2E/DX2 =    0.0315             !
 ! A66   A(27,26,28)           108.9195         D2E/DX2 =    0.0252             !
 ! A67   A(2,29,30)            112.6591         D2E/DX2 =    0.0977             !
 ! A68   A(2,29,31)            112.0988         D2E/DX2 =    0.1012             !
 ! A69   A(2,29,32)            111.0506         D2E/DX2 =    0.0973             !
 ! A70   A(30,29,31)           107.528          D2E/DX2 =    0.0472             !
 ! A71   A(30,29,32)           106.969          D2E/DX2 =    0.0449             !
 ! A72   A(31,29,32)           106.1725         D2E/DX2 =    0.0445             !
 ! A73   A(2,33,34)            112.612          D2E/DX2 =    0.0972             !
 ! A74   A(2,33,35)            110.8816         D2E/DX2 =    0.0989             !
 ! A75   A(2,33,36)            112.434          D2E/DX2 =    0.0979             !
 ! A76   A(34,33,35)           106.5429         D2E/DX2 =    0.0447             !
 ! A77   A(34,33,36)           107.9737         D2E/DX2 =    0.0468             !
 ! A78   A(35,33,36)           106.0046         D2E/DX2 =    0.0443             !
 ! A79   A(7,37,38)            111.9478         D2E/DX2 =    0.0944             !
 ! A80   A(7,37,39)            112.5348         D2E/DX2 =    0.1025             !
 ! A81   A(7,37,40)            111.8372         D2E/DX2 =    0.1038             !
 ! A82   A(38,37,39)           108.0858         D2E/DX2 =    0.0458             !
 ! A83   A(38,37,40)           105.5941         D2E/DX2 =    0.0443             !
 ! A84   A(39,37,40)           106.4314         D2E/DX2 =    0.0474             !
 ! D1    D(4,1,2,3)            -41.429          D2E/DX2 =    0.0117             !
 ! D2    D(4,1,2,29)            82.9502         D2E/DX2 =    0.0197             !
 ! D3    D(4,1,2,33)          -159.9031         D2E/DX2 =    0.0166             !
 ! D4    D(8,1,2,3)             83.7433         D2E/DX2 =    0.014              !
 ! D5    D(8,1,2,29)          -151.8775         D2E/DX2 =    0.0177             !
 ! D6    D(8,1,2,33)           -34.7308         D2E/DX2 =    0.015              !
 ! D7    D(10,1,2,3)          -169.5188         D2E/DX2 =    0.014              !
 ! D8    D(10,1,2,29)          -45.1396         D2E/DX2 =    0.0164             !
 ! D9    D(10,1,2,33)           72.0071         D2E/DX2 =    0.0146             !
 ! D10   D(2,1,4,6)             16.3818         D2E/DX2 =    0.0123             !
 ! D11   D(2,1,4,20)          -172.9108         D2E/DX2 =    0.0116             !
 ! D12   D(8,1,4,6)           -108.6198         D2E/DX2 =    0.0176             !
 ! D13   D(8,1,4,20)            62.0876         D2E/DX2 =    0.0158             !
 ! D14   D(10,1,4,6)           142.9167         D2E/DX2 =    0.0178             !
 ! D15   D(10,1,4,20)          -46.376          D2E/DX2 =    0.0151             !
 ! D16   D(1,2,3,5)             85.8888         D2E/DX2 =    0.0162             !
 ! D17   D(1,2,3,9)            -39.9018         D2E/DX2 =    0.0151             !
 ! D18   D(1,2,3,11)          -153.9782         D2E/DX2 =    0.0161             !
 ! D19   D(29,2,3,5)           -36.4477         D2E/DX2 =    0.0159             !
 ! D20   D(29,2,3,9)          -162.2383         D2E/DX2 =    0.0149             !
 ! D21   D(29,2,3,11)           83.6853         D2E/DX2 =    0.0147             !
 ! D22   D(33,2,3,5)          -156.5451         D2E/DX2 =    0.0173             !
 ! D23   D(33,2,3,9)            77.6643         D2E/DX2 =    0.0146             !
 ! D24   D(33,2,3,11)          -36.4121         D2E/DX2 =    0.0157             !
 ! D25   D(1,2,29,30)          -56.226          D2E/DX2 =    0.0132             !
 ! D26   D(1,2,29,31)           65.2234         D2E/DX2 =    0.0128             !
 ! D27   D(1,2,29,32)         -176.1967         D2E/DX2 =    0.0133             !
 ! D28   D(3,2,29,30)           67.6484         D2E/DX2 =    0.0124             !
 ! D29   D(3,2,29,31)         -170.9021         D2E/DX2 =    0.0123             !
 ! D30   D(3,2,29,32)          -52.3222         D2E/DX2 =    0.0128             !
 ! D31   D(33,2,29,30)        -172.3259         D2E/DX2 =    0.0146             !
 ! D32   D(33,2,29,31)         -50.8765         D2E/DX2 =    0.0138             !
 ! D33   D(33,2,29,32)          67.7034         D2E/DX2 =    0.0141             !
 ! D34   D(1,2,33,34)           66.4482         D2E/DX2 =    0.0124             !
 ! D35   D(1,2,33,35)         -174.2755         D2E/DX2 =    0.0129             !
 ! D36   D(1,2,33,36)          -55.8012         D2E/DX2 =    0.0123             !
 ! D37   D(3,2,33,34)          -53.9472         D2E/DX2 =    0.0127             !
 ! D38   D(3,2,33,35)           65.329          D2E/DX2 =    0.0129             !
 ! D39   D(3,2,33,36)         -176.1967         D2E/DX2 =    0.0131             !
 ! D40   D(29,2,33,34)        -176.3274         D2E/DX2 =    0.0141             !
 ! D41   D(29,2,33,35)         -57.0512         D2E/DX2 =    0.0138             !
 ! D42   D(29,2,33,36)          61.4231         D2E/DX2 =    0.0138             !
 ! D43   D(2,3,5,7)            -67.2097         D2E/DX2 =    0.0128             !
 ! D44   D(2,3,5,12)            75.153          D2E/DX2 =    0.012              !
 ! D45   D(2,3,5,26)          -139.1435         D2E/DX2 =    0.0213             !
 ! D46   D(9,3,5,7)             57.7067         D2E/DX2 =    0.0159             !
 ! D47   D(9,3,5,12)          -159.9306         D2E/DX2 =    0.012              !
 ! D48   D(9,3,5,26)           -14.2271         D2E/DX2 =    0.0151             !
 ! D49   D(11,3,5,7)           172.1698         D2E/DX2 =    0.0157             !
 ! D50   D(11,3,5,12)          -45.4676         D2E/DX2 =    0.0118             !
 ! D51   D(11,3,5,26)          100.236          D2E/DX2 =    0.0168             !
 ! D52   D(1,4,6,7)            -40.6387         D2E/DX2 =    0.0137             !
 ! D53   D(1,4,6,13)            77.2147         D2E/DX2 =    0.0093             !
 ! D54   D(1,4,6,14)          -171.5907         D2E/DX2 =    0.0129             !
 ! D55   D(20,4,6,7)           148.0789         D2E/DX2 =    0.0169             !
 ! D56   D(20,4,6,13)          -94.0677         D2E/DX2 =    0.011              !
 ! D57   D(20,4,6,14)           17.1269         D2E/DX2 =    0.01               !
 ! D58   D(1,4,20,17)         -173.0409         D2E/DX2 =    0.0077             !
 ! D59   D(1,4,20,21)          -54.3428         D2E/DX2 =    0.011              !
 ! D60   D(1,4,20,22)           65.2424         D2E/DX2 =    0.0196             !
 ! D61   D(6,4,20,17)           -0.5497         D2E/DX2 =    0.0064             !
 ! D62   D(6,4,20,21)          118.1483         D2E/DX2 =    0.012              !
 ! D63   D(6,4,20,22)         -122.2665         D2E/DX2 =    0.0208             !
 ! D64   D(3,5,7,6)             -8.6074         D2E/DX2 =    0.0153             !
 ! D65   D(3,5,7,37)           138.6008         D2E/DX2 =    0.0179             !
 ! D66   D(12,5,7,6)          -149.0491         D2E/DX2 =    0.0164             !
 ! D67   D(12,5,7,37)           -1.8409         D2E/DX2 =    0.0151             !
 ! D68   D(3,5,26,27)         -142.8252         D2E/DX2 =    0.0202             !
 ! D69   D(3,5,26,28)           -2.2077         D2E/DX2 =    0.0205             !
 ! D70   D(12,5,26,27)           1.4113         D2E/DX2 =    0.0152             !
 ! D71   D(12,5,26,28)         142.0288         D2E/DX2 =    0.0186             !
 ! D72   D(4,6,7,5)             57.0791         D2E/DX2 =    0.0123             !
 ! D73   D(4,6,7,26)           124.2181         D2E/DX2 =    0.0181             !
 ! D74   D(4,6,7,37)           -90.524          D2E/DX2 =    0.0101             !
 ! D75   D(13,6,7,5)           -59.1859         D2E/DX2 =    0.007              !
 ! D76   D(13,6,7,26)            7.953          D2E/DX2 =    0.0102             !
 ! D77   D(13,6,7,37)          153.211          D2E/DX2 =    0.0047             !
 ! D78   D(14,6,7,5)          -175.8926         D2E/DX2 =    0.0129             !
 ! D79   D(14,6,7,26)         -108.7537         D2E/DX2 =    0.0168             !
 ! D80   D(14,6,7,37)           36.5043         D2E/DX2 =    0.0099             !
 ! D81   D(4,6,14,15)         -149.3147         D2E/DX2 =    0.0144             !
 ! D82   D(4,6,14,16)           93.2507         D2E/DX2 =    0.0128             !
 ! D83   D(4,6,14,17)          -26.9437         D2E/DX2 =    0.0106             !
 ! D84   D(7,6,14,15)           76.3553         D2E/DX2 =    0.0154             !
 ! D85   D(7,6,14,16)          -41.0793         D2E/DX2 =    0.0138             !
 ! D86   D(7,6,14,17)         -161.2737         D2E/DX2 =    0.0156             !
 ! D87   D(13,6,14,15)         -40.3463         D2E/DX2 =    0.008              !
 ! D88   D(13,6,14,16)        -157.7809         D2E/DX2 =    0.0077             !
 ! D89   D(13,6,14,17)          82.0247         D2E/DX2 =    0.0049             !
 ! D90   D(6,7,26,27)          141.5996         D2E/DX2 =    0.0188             !
 ! D91   D(6,7,26,28)            1.4057         D2E/DX2 =    0.0176             !
 ! D92   D(37,7,26,27)          -2.7828         D2E/DX2 =    0.0167             !
 ! D93   D(37,7,26,28)        -142.9767         D2E/DX2 =    0.0194             !
 ! D94   D(5,7,37,38)          140.6433         D2E/DX2 =    0.0138             !
 ! D95   D(5,7,37,39)          -97.3804         D2E/DX2 =    0.0127             !
 ! D96   D(5,7,37,40)           22.3681         D2E/DX2 =    0.0131             !
 ! D97   D(6,7,37,38)          -71.3626         D2E/DX2 =    0.0096             !
 ! D98   D(6,7,37,39)           50.6136         D2E/DX2 =    0.0095             !
 ! D99   D(6,7,37,40)          170.3621         D2E/DX2 =    0.011              !
 ! D100  D(26,7,37,38)          72.8656         D2E/DX2 =    0.0137             !
 ! D101  D(26,7,37,39)        -165.1582         D2E/DX2 =    0.0142             !
 ! D102  D(26,7,37,40)         -45.4096         D2E/DX2 =    0.0149             !
 ! D103  D(6,14,17,18)         148.6337         D2E/DX2 =    0.0155             !
 ! D104  D(6,14,17,19)         -94.3712         D2E/DX2 =    0.0158             !
 ! D105  D(6,14,17,20)          26.5419         D2E/DX2 =    0.0083             !
 ! D106  D(15,14,17,18)        -89.7962         D2E/DX2 =    0.0151             !
 ! D107  D(15,14,17,19)         27.199          D2E/DX2 =    0.0144             !
 ! D108  D(15,14,17,20)        148.112          D2E/DX2 =    0.0142             !
 ! D109  D(16,14,17,18)         27.8942         D2E/DX2 =    0.0155             !
 ! D110  D(16,14,17,19)        144.8894         D2E/DX2 =    0.0168             !
 ! D111  D(16,14,17,20)        -94.1975         D2E/DX2 =    0.0167             !
 ! D112  D(14,17,20,4)         -16.434          D2E/DX2 =    0.0079             !
 ! D113  D(14,17,20,21)       -135.5934         D2E/DX2 =    0.0117             !
 ! D114  D(14,17,20,22)        104.5842         D2E/DX2 =    0.0173             !
 ! D115  D(18,17,20,4)        -138.1107         D2E/DX2 =    0.0163             !
 ! D116  D(18,17,20,21)        102.73           D2E/DX2 =    0.0136             !
 ! D117  D(18,17,20,22)        -17.0925         D2E/DX2 =    0.0154             !
 ! D118  D(19,17,20,4)         104.6795         D2E/DX2 =    0.0155             !
 ! D119  D(19,17,20,21)        -14.4798         D2E/DX2 =    0.0134             !
 ! D120  D(19,17,20,22)       -134.3022         D2E/DX2 =    0.0169             !
 ! D121  D(4,20,22,23)         175.7365         D2E/DX2 =    0.0151             !
 ! D122  D(4,20,22,24)         -65.6315         D2E/DX2 =    0.0145             !
 ! D123  D(4,20,22,25)          57.3074         D2E/DX2 =    0.014              !
 ! D124  D(17,20,22,23)         57.6051         D2E/DX2 =    0.0143             !
 ! D125  D(17,20,22,24)        176.2371         D2E/DX2 =    0.0146             !
 ! D126  D(17,20,22,25)        -60.824          D2E/DX2 =    0.0138             !
 ! D127  D(21,20,22,23)        -63.2294         D2E/DX2 =    0.012              !
 ! D128  D(21,20,22,24)         55.4026         D2E/DX2 =    0.012              !
 ! D129  D(21,20,22,25)        178.3415         D2E/DX2 =    0.0127             !
 --------------------------------------------------------------------------------
 Trust Radius=3.00D-01 FncErr=1.00D-07 GrdErr=1.00D-07 EigMax=2.50D+02 EigMin=1.00D-04
 Number of steps in this run=    240 maximum allowed number of steps=    240.
 GradGradGradGradGradGradGradGradGradGradGradGradGradGradGradGradGradGrad

 Leave Link  103 at Thu Mar 27 17:21:41 2025, MaxMem=  8053063680 cpu:               0.1 elap:               0.0
 (Enter /home/apps/g16_C02_zen2/g16/l202.exe)
                          Input orientation:                          
 ---------------------------------------------------------------------
 Center     Atomic      Atomic             Coordinates (Angstroms)
 Number     Number       Type             X           Y           Z
 ---------------------------------------------------------------------
      1          6           0       -0.419109   -1.568836    0.204251
      2          6           0       -1.851848   -0.992593   -0.006078
      3          6           0       -2.079171    0.276890    0.838130
      4          6           0        0.748038   -0.721172    0.285641
      5          6           0       -1.594524    1.503327    0.116111
      6          6           0        0.867250    0.727764    0.518864
      7          6           0       -0.100477    1.688907   -0.137843
      8          1           0       -0.445841   -2.212156    1.138012
      9          1           0       -1.624042    0.170079    1.838582
     10          1           0       -0.270036   -2.366068   -0.584080
     11          1           0       -3.168735    0.393671    1.049982
     12          1           0       -2.282884    1.801120   -0.693731
     13          1           0        0.695074    0.824320    1.655076
     14          6           0        2.359568    1.063781    0.278004
     15          1           0        2.690393    1.911149    0.904868
     16          1           0        2.543310    1.384452   -0.764594
     17          6           0        3.112377   -0.233956    0.590694
     18          1           0        4.025059   -0.333530   -0.027426
     19          1           0        3.472728   -0.252561    1.636644
     20          6           0        2.102332   -1.371750    0.326968
     21          1           0        2.150910   -2.123436    1.163488
     22          6           0        2.395059   -2.104117   -0.981880
     23          1           0        3.421124   -2.514911   -0.973848
     24          1           0        1.728088   -2.958068   -1.154714
     25          1           0        2.337890   -1.441132   -1.856424
     26          6           0       -0.855315    2.615025    0.810903
     27          1           0       -1.039761    3.649252    0.512682
     28          1           0       -0.674939    2.584048    1.881447
     29          6           0       -2.067125   -0.743190   -1.501138
     30          1           0       -1.307093   -0.083230   -1.932494
     31          1           0       -2.062421   -1.675519   -2.080133
     32          1           0       -3.044380   -0.272040   -1.686654
     33          6           0       -2.843064   -2.072022    0.459396
     34          1           0       -2.789078   -2.256557    1.538135
     35          1           0       -3.880282   -1.771426    0.244260
     36          1           0       -2.692505   -3.028287   -0.055386
     37          6           0        0.308452    2.220642   -1.482751
     38          1           0        1.142693    2.935321   -1.406454
     39          1           0        0.604110    1.425259   -2.176815
     40          1           0       -0.511006    2.772747   -1.971926
 ---------------------------------------------------------------------
                    Distance matrix (angstroms):
                    1          2          3          4          5
     1  C    0.000000
     2  C    1.558536   0.000000
     3  C    2.562091   1.541412   0.000000
     4  C    1.444781   2.630243   3.048686   0.000000
     5  C    3.290525   2.512124   1.503444   3.234925   0.000000
     6  C    2.651051   3.260167   2.997768   1.472420   2.612287
     7  C    3.291116   3.205481   2.619455   2.589942   1.526797
     8  H    1.134234   2.184749   2.992164   2.091630   4.021016
     9  H    2.673336   2.192367   1.104289   2.971989   2.178378
    10  H    1.131047   2.173165   3.504408   2.120984   4.149308
    11  H    3.482404   2.184304   1.116095   4.143453   2.140465
    12  H    3.954317   2.909208   2.170570   4.062956   1.103795
    13  H    3.012224   3.542233   2.943385   2.065600   2.841078
    14  C    3.828466   4.695253   4.542614   2.404817   3.981740
    15  H    4.719127   5.467495   5.042222   3.329459   4.375955
    16  H    4.293774   5.054019   5.016249   2.959670   4.232192
    17  C    3.795080   5.057192   5.222486   2.433214   5.039672
    18  H    4.618472   5.913786   6.195436   3.314686   5.913913
    19  H    4.350945   5.621146   5.633961   3.077131   5.574245
    20  C    2.532107   3.986254   4.523745   1.503021   4.687993
    21  H    2.798699   4.320736   4.874526   2.169103   5.317771
    22  C    3.100479   4.497098   5.385198   2.496362   5.489627
    23  H    4.126786   5.572994   6.428893   3.456761   6.518510
    24  H    2.896067   4.242451   5.378810   2.835282   5.706031
    25  H    3.444377   4.602051   5.451849   2.763045   5.293829
    26  C    4.250057   3.830854   2.639212   3.738562   1.505005
    27  H    5.263912   4.740815   3.543884   4.727407   2.251672
    28  H    4.486076   4.211915   2.895403   3.936488   2.264952
    29  C    2.511175   1.530932   2.552036   3.334398   2.808146
    30  H    2.749767   2.198813   2.898646   3.090414   2.607021
    31  H    2.816073   2.193726   3.511188   3.795570   3.891976
    32  H    3.485577   2.183040   2.758167   4.298151   2.916156
    33  C    2.488745   1.537641   2.498871   3.840703   3.802606
    34  H    2.805167   2.204676   2.722559   4.054299   4.193548
    35  H    3.467328   2.187189   2.791466   4.746166   3.995638
    36  H    2.713989   2.202994   3.478325   4.156491   4.665887
    37  C    4.211349   4.143953   3.855568   3.460451   2.586932
    38  H    5.031999   5.133891   4.741921   4.048318   3.444004
    39  H    3.959931   4.073063   4.196266   3.269797   3.177672
    40  H    4.857318   4.454235   4.072452   4.346180   2.673077
                    6          7          8          9         10
     6  C    0.000000
     7  C    1.513789   0.000000
     8  H    3.278823   4.118905   0.000000
     9  H    2.873883   2.921360   2.748454   0.000000
    10  H    3.475874   4.082977   1.737871   3.759610   0.000000
    11  H    4.084468   3.535926   3.769912   1.748702   4.323052
    12  H    3.542008   2.254884   4.778744   3.083338   4.629150
    13  H    1.153232   2.143588   3.284696   2.416611   4.015449
    14  C    1.548526   2.572068   4.397920   4.370727   4.407025
    15  H    2.207544   2.987574   5.185746   4.745261   5.410701
    16  H    2.210810   2.734067   5.048814   5.061428   4.691897
    17  C    2.443493   3.814525   4.107767   4.914685   4.167338
    18  H    3.375876   4.595922   4.987628   5.970591   4.784236
    19  H    2.999830   4.436879   4.409515   5.118248   4.838058
    20  C    2.443401   3.799479   2.803081   4.306748   2.728883
    21  H    3.192595   4.614777   2.598391   4.468358   2.995637
    22  C    3.550490   4.618130   3.546311   5.411113   2.707322
    23  H    4.389237   5.547312   4.416450   6.369665   3.714665
    24  H    4.138510   5.096279   3.246374   5.475573   2.160691
    25  H    3.536791   4.323922   4.160563   5.652078   3.045594
    26  C    2.571822   1.525645   4.855548   2.761309   5.205748
    27  H    3.488814   2.269006   5.924515   3.768825   6.162745
    28  H    2.771420   2.282284   4.858884   2.594201   5.544945
    29  C    3.854176   3.411946   3.428051   3.490575   2.589258
    30  H    3.375594   2.795919   3.834330   3.792840   2.846938
    31  H    4.594946   4.352135   3.641122   4.353704   2.434683
    32  H    4.600518   3.861436   4.300604   3.826240   3.646588
    33  C    4.648523   4.692873   2.495362   2.900893   2.792092
    34  H    4.828439   5.060056   2.377568   2.708531   3.295658
    35  H    5.372189   5.138758   3.576090   3.376673   3.751483
    36  H    5.206682   5.383059   2.671660   3.867592   2.566400
    37  C    2.558790   1.502911   5.204523   4.355525   4.709582
    38  H    2.942112   2.169883   5.957706   5.082484   5.547686
    39  H    2.796861   2.173329   5.032024   4.760625   4.204176
    40  H    3.505080   2.169586   5.875817   4.746863   5.328377
                   11         12         13         14         15
    11  H    0.000000
    12  H    2.409601   0.000000
    13  H    3.934541   3.916537   0.000000
    14  C    5.622021   4.800030   2.173524   0.000000
    15  H    6.054187   5.225047   2.392761   1.104733   0.000000
    16  H    6.074684   4.844665   3.095889   1.106166   1.756744
    17  C    6.329078   5.907632   2.845384   1.532520   2.208676
    18  H    7.310288   6.692596   3.906435   2.195366   2.772921
    19  H    6.698568   6.540284   2.979156   2.194945   2.414370
    20  C    5.605676   5.508089   2.926939   2.449567   3.384850
    21  H    5.886198   6.205637   3.324212   3.314510   4.078701
    22  C    6.428313   6.100578   4.291762   3.409420   4.446279
    23  H    7.482111   7.158372   5.049064   3.937141   4.863491
    24  H    6.330380   6.241015   4.823743   4.315869   5.373750
    25  H    6.491273   5.763298   4.490184   3.291025   4.357383
    26  C    3.216129   2.228075   2.514548   3.609128   3.616119
    27  H    3.926834   2.533057   3.506416   4.277285   4.133868
    28  H    3.421711   3.135284   2.241611   3.753728   3.568188
    29  C    3.002368   2.678053   4.477557   5.101579   5.955533
    30  H    3.548001   2.457127   4.207491   4.432419   5.292265
    31  H    3.911917   3.749364   5.273022   5.711266   6.660606
    32  H    2.819186   2.421521   5.133486   5.903130   6.661075
    33  C    2.556266   4.079795   4.726189   6.077297   6.832514
    34  H    2.721423   4.658562   4.652397   6.254688   6.913422
    35  H    2.417258   4.024251   5.446300   6.853850   7.561186
    36  H    3.627455   4.888603   5.407768   6.509962   7.368562
    37  C    4.673691   2.741090   3.456175   2.940351   3.386762
    38  H    5.575165   3.678174   3.745617   2.796577   2.964206
    39  H    5.070577   3.267345   3.879792   3.039480   3.753057
    40  H    4.674982   2.391107   4.290238   4.027772   4.389449
                   16         17         18         19         20
    16  H    0.000000
    17  C    2.186295   0.000000
    18  H    2.385469   1.106787   0.000000
    19  H    3.051160   1.106440   1.755208   0.000000
    20  C    2.997102   1.544124   2.213679   2.201322   0.000000
    21  H    4.022035   2.196053   2.852101   2.339071   1.125681
    22  C    3.498472   2.546573   2.588988   3.383237   1.528114
    23  H    4.002422   2.783141   2.453339   3.454787   2.176729
    24  H    4.435568   3.519019   3.665386   4.260894   2.202690
    25  H    3.036152   2.836458   2.723702   3.860321   2.197158
    26  C    3.942987   4.889556   5.763230   5.257076   4.987609
    27  H    4.427092   5.685563   6.465808   6.070419   5.926018
    28  H    4.335631   4.893971   5.852012   5.030847   5.077202
    29  C    5.130836   5.609129   6.281271   6.385637   4.595806
    30  H    4.282953   5.091258   5.667785   5.967756   4.288314
    31  H    5.683909   5.999163   6.562923   6.817413   4.819915
    32  H    5.900546   6.564558   7.261803   7.315557   5.634951
    33  C    6.516010   6.234019   7.101441   6.677243   4.996485
    34  H    6.855208   6.309971   7.251309   6.575402   5.116220
    35  H    7.227717   7.168062   8.039638   7.636258   5.996520
    36  H    6.883967   6.474748   7.237967   6.969771   5.087315
    37  C    2.491897   4.264530   4.738664   5.085273   4.404358
    38  H    2.186071   4.232324   4.571120   4.985188   4.740940
    39  H    2.399277   4.086992   4.406371   5.058312   4.041888
    40  H    3.565650   5.360614   5.831461   6.168015   5.412144
                   21         22         23         24         25
    21  H    0.000000
    22  C    2.159302   0.000000
    23  H    2.516923   1.105272   0.000000
    24  H    2.499890   1.097249   1.759396   0.000000
    25  H    3.101672   1.098929   1.762197   1.779144   0.000000
    26  C    5.622696   6.004106   6.912995   6.449572   5.810646
    27  H    6.627809   6.865344   7.752817   7.355125   6.552343
    28  H    5.537264   6.293045   7.136514   6.760759   6.265054
    29  C    5.176595   4.693915   5.791193   4.407872   4.474094
    30  H    5.070043   4.323607   5.402603   4.252289   3.890449
    31  H    5.336091   4.610747   5.656653   4.107224   4.412225
    32  H    6.208221   5.782794   6.880502   5.502195   5.510393
    33  C    5.043626   5.432884   6.441303   4.928068   5.709933
    34  H    4.955962   5.766193   6.703985   5.305501   6.202722
    35  H    6.110987   6.402656   7.439562   5.900767   6.571730
    36  H    5.075734   5.253169   6.203514   4.555776   5.573839
    37  C    5.410014   4.827871   5.689743   5.379778   4.203195
    38  H    5.762996   5.210049   5.923126   5.927739   4.558982
    39  H    5.113067   4.134230   4.990756   4.639135   3.365241
    40  H    6.394469   5.762743   6.664619   6.206740   5.087861
                   26         27         28         29         30
    26  C    0.000000
    27  H    1.092054   0.000000
    28  H    1.086075   1.772364   0.000000
    29  C    4.253425   4.940091   4.944753   0.000000
    30  H    3.874392   4.470098   4.696822   1.095109   0.000000
    31  H    5.312623   6.010134   5.980229   1.097494   1.768531
    32  H    4.400561   4.922612   5.148090   1.100648   1.764724
    33  C    5.103245   5.998976   5.329351   2.492302   3.469242
    34  H    5.291561   6.244217   5.293289   3.471121   4.354871
    35  H    5.358401   6.125713   5.650200   2.718680   3.769558
    36  H    5.997724   6.902448   6.270582   2.775422   3.757162
    37  C    2.602065   2.800064   3.523770   3.798422   2.849576
    38  H    3.001882   2.992638   3.773258   4.882964   3.922986
    39  H    3.531561   3.857700   4.410018   3.506310   2.447025
    40  H    2.808481   2.687214   3.861473   3.873624   2.965117
                   31         32         33         34         35
    31  H    0.000000
    32  H    1.757504   0.000000
    33  C    2.686229   2.808201   0.000000
    34  H    3.735974   3.795096   1.095740   0.000000
    35  H    2.952392   2.583664   1.101119   1.760736   0.000000
    36  H    2.515271   3.222072   1.096408   1.773190   1.755078
    37  C    4.599780   4.182884   5.668417   6.226216   6.038598
    38  H    5.655656   5.281785   6.666418   7.147379   7.078743
    39  H    4.090790   4.053710   5.573472   6.234609   6.015827
    40  H    4.712289   3.971158   5.900984   6.542480   6.075608
                   36         37         38         39         40
    36  H    0.000000
    37  C    6.212437   0.000000
    38  H    7.217946   1.101156   0.000000
    39  H    5.933145   1.096254   1.778711   0.000000
    40  H    6.487223   1.102553   1.755252   1.761019   0.000000
 Stoichiometry    C15H25(1+)
 Framework group  C1[X(C15H25)]
 Deg. of freedom   114
 Full point group                 C1      NOp   1
 RotChk:  IX=0 Diff= 5.65D-02
 Largest Abelian subgroup         C1      NOp   1
 Largest concise Abelian subgroup C1      NOp   1
                         Standard orientation:                         
 ---------------------------------------------------------------------
 Center     Atomic      Atomic             Coordinates (Angstroms)
 Number     Number       Type             X           Y           Z
 ---------------------------------------------------------------------
      1          6           0        0.408258   -1.549949   -0.258318
      2          6           0        1.843046   -0.985958   -0.029553
      3          6           0        2.078798    0.303164   -0.841055
      4          6           0       -0.754669   -0.694984   -0.321771
      5          6           0        1.597753    1.513432   -0.089928
      6          6           0       -0.866416    0.759885   -0.518973
      7          6           0        0.103845    1.699686    0.164347
      8          1           0        0.434747   -2.169816   -1.207817
      9          1           0        1.626138    0.223589   -1.845157
     10          1           0        0.253128   -2.365946    0.509374
     11          1           0        3.169518    0.420039   -1.046818
     12          1           0        2.285097    1.787590    0.729070
     13          1           0       -0.690428    0.884032   -1.651916
     14          6           0       -2.357853    1.096848   -0.274016
     15          1           0       -2.682858    1.961201   -0.880400
     16          1           0       -2.543180    1.392191    0.775760
     17          6           0       -3.115791   -0.189068   -0.621245
     18          1           0       -4.030754   -0.299750   -0.008409
     19          1           0       -3.473127   -0.179778   -1.668353
     20          6           0       -2.111860   -1.337888   -0.383226
     21          1           0       -2.161474   -2.068162   -1.238444
     22          6           0       -2.411879   -2.101388    0.906033
     23          1           0       -3.439825   -2.506978    0.884799
     24          1           0       -1.749421   -2.962554    1.059321
     25          1           0       -2.354202   -1.460779    1.797065
     26          6           0        0.865807    2.645667   -0.758760
     27          1           0        1.054201    3.671219   -0.434209
     28          1           0        0.688458    2.642352   -1.830253
     29          6           0        2.055060   -0.775079    1.471890
     30          1           0        1.296848   -0.122522    1.917476
     31          1           0        2.044285   -1.721574    2.027339
     32          1           0        3.033953   -0.313363    1.671923
     33          6           0        2.830579   -2.058090   -0.519095
     34          1           0        2.778925   -2.215309   -1.602266
     35          1           0        3.868550   -1.767900   -0.293551
     36          1           0        2.674030   -3.026215   -0.028852
     37          6           0       -0.306574    2.199527    1.520981
     38          1           0       -1.137236    2.919843    1.460235
     39          1           0       -0.608000    1.388433    2.194066
     40          1           0        0.514004    2.735320    2.026157
 ---------------------------------------------------------------------
 Rotational constants (GHZ):           0.7765515           0.5719054           0.4052459
 Leave Link  202 at Thu Mar 27 17:21:41 2025, MaxMem=  8053063680 cpu:               0.0 elap:               0.0
 (Enter /home/apps/g16_C02_zen2/g16/l301.exe)
 Standard basis: VSTO-6G (5D, 7F)
 Ernie: Thresh=  0.10000D-02 Tol=  0.10000D-05 Strict=F.
 EHB=         0.000000000 Number of Hydrogen Bond terms=           0
  NNHCO=     0 NNPyr=     0 NCTC=     0               EPep=         0.000000000
    EC=       541.122936600  ECS=         6.748258722   EG=         1.376162686
   EHC=         0.000918480  EAt=       -73.943797150  AtH=         6.160703796
 EPDDG=         0.000000000  ECC=       549.248276488 EAtT=        80.104500946
  EHyb=         0.000000000
 There are    85 symmetry adapted cartesian basis functions of A   symmetry.
 There are    85 symmetry adapted basis functions of A   symmetry.
    85 basis functions,   510 primitive gaussians,    85 cartesian basis functions
    42 alpha electrons       42 beta electrons
       nuclear repulsion energy       629.3527774334 Hartrees.
 IExCor=    0 DFT=F Ex=HF Corr=None ExCW=0 ScaHFX=  1.000000
 ScaDFX=  1.000000  1.000000  1.000000  1.000000 ScalE2=  1.000000  1.000000
 IRadAn=      5 IRanWt=     -1 IRanGd=            0 ICorTp=0 IEmpDi=251
 Integral buffers will be    131072 words long.
 Regular integral format.
 Two-electron integral symmetry is turned off.
 R6Disp:  PM7 Dispersion energy=       -0.0122196718 Hartrees.
 Nuclear repulsion after empirical dispersion term =      629.3405577617 Hartrees.
 Leave Link  301 at Thu Mar 27 17:21:41 2025, MaxMem=  8053063680 cpu:               0.0 elap:               0.0
 (Enter /home/apps/g16_C02_zen2/g16/l302.exe)
 Do NDO integrals.
 NPDir=0 NMtPBC=     1 NCelOv=     1 NCel=       1 NClECP=     1 NCelD=      1
         NCelK=      1 NCelE2=     1 NClLst=     1 CellRange=     0.0.
 One-electron integrals computed using PRISM.
 NBasis=    85 RedAO= F EigKep=  0.00D+00  NBF=    85
 NBsUse=    85 1.00D-04 EigRej=  0.00D+00 NBFU=    85
 Leave Link  302 at Thu Mar 27 17:21:41 2025, MaxMem=  8053063680 cpu:               0.1 elap:               0.0
 (Enter /home/apps/g16_C02_zen2/g16/l303.exe)
 DipDrv:  MaxL=1.
 Leave Link  303 at Thu Mar 27 17:21:41 2025, MaxMem=  8053063680 cpu:               0.0 elap:               0.0
 (Enter /home/apps/g16_C02_zen2/g16/l401.exe)
 Initial guess from the checkpoint file:  "IM5_tsopt_Ropt.chk"
 B after Tr=    -0.007779    0.028827   -0.030301
         Rot=   -0.001451    0.002355    0.999918    0.012519 Ang= 180.17 deg.
 Guess basis will be translated and rotated to current coordinates.
 JPrj=0 DoOrth=T DoCkMO=T.
 Leave Link  401 at Thu Mar 27 17:21:41 2025, MaxMem=  8053063680 cpu:               0.1 elap:               0.0
 (Enter /home/apps/g16_C02_zen2/g16/l502.exe)
 Keep J ints in memory in canonical form, NReq=876540.
 FoFCou: FMM=F IPFlag=           0 FMFlag=           0 FMFlg1=           0
         NFxFlg=           0 DoJE=F BraDBF=F KetDBF=F FulRan=T
         wScrn=  0.000000 ICntrl=       600 IOpCl=  2 I1Cent=           0 NGrid=           0
         NMat0=    1 NMatS0=    175 NMatT0=    0 NMatD0=    1 NMtDS0=    0 NMtDT0=    0
 Symmetry not used in FoFCou.
 Two-electron integral symmetry not used.
 Closed shell SCF:
 Using DIIS extrapolation, IDIIS=  1040.
 Overlap will be assumed to be unity.
 NGot=  8053063680 LenX=  8052971523 LenY=  8052963857
 Requested convergence on RMS density matrix=1.00D-08 within 128 cycles.
 Requested convergence on MAX density matrix=1.00D-06.
 Requested convergence on             energy=1.00D-06.
 No special actions if energy rises.

 Cycle   1  Pass 1  IDiag  1:
 E= 0.248507536242755    
 DIIS: error= 2.77D-09 at cycle   1 NSaved=   1.
 NSaved= 1 IEnMin= 1 EnMin= 0.248507536242755     IErMin= 1 ErrMin= 2.77D-09
 ErrMax= 2.77D-09  0.00D+00 EMaxC= 1.00D-01 BMatC= 2.73D-16 BMatP= 2.73D-16
 IDIUse=1 WtCom= 1.00D+00 WtEn= 0.00D+00
 Coeff-Com:  0.100D+01
 Coeff:      0.100D+01
 RMSDP=6.03D-10 MaxDP=1.18D-08              OVMax= 0.00D+00

 Cycle   2  Pass 2  IDiag  1:
 SCF Done:  E(RPM7) =  0.248507536243     A.U. after    2 cycles
            NFock=  1  Conv=0.60D-09     -V/T= 1.0020
 KE=-1.266543457759D+02 PE=-1.066841186467D+03 EE= 5.644034820176D+02
 Leave Link  502 at Thu Mar 27 17:21:41 2025, MaxMem=  8053063680 cpu:               0.1 elap:               0.0
 (Enter /home/apps/g16_C02_zen2/g16/l701.exe)
 ... and contract with generalized density number  0.
 Compute integral first derivatives.
 R6Disp: Adding PM7 dispersion energy 1st derivatives to the gradient.
 Leave Link  701 at Thu Mar 27 17:21:42 2025, MaxMem=  8053063680 cpu:               0.1 elap:               0.0
 (Enter /home/apps/g16_C02_zen2/g16/l702.exe)
 L702 exits ... SP integral derivatives will be done elsewhere.
 Leave Link  702 at Thu Mar 27 17:21:42 2025, MaxMem=  8053063680 cpu:               0.0 elap:               0.0
 (Enter /home/apps/g16_C02_zen2/g16/l703.exe)
 Integral derivatives from FoFJK, PRISM(SPDF).
 Compute integral first derivatives, UseDBF=F ICtDFT=           0.
 Calling FoFJK, ICntrl=      2127 FMM=F ISym2X=0 I1Cent= 0 IOpClX= 0 NMat=1 NMatS=1 NMatT=0.
 FoFJK:  IHMeth=43 ICntrl=    2127 DoSepK=F KAlg= 0 I1Cent=           0 FoldK=F
 IRaf=         0 NMat=       1 IRICut=       1 DoRegI=T DoRafI=F ISym2E= 0 IDoP0=3 IntGTp=3.
 FoFCou: FMM=F IPFlag=           0 FMFlag=      100000 FMFlg1=         800
         NFxFlg=           0 DoJE=F BraDBF=F KetDBF=F FulRan=T
         wScrn=  0.000000 ICntrl=      2127 IOpCl=  0 I1Cent=           0 NGrid=           0
         NMat0=    1 NMatS0=      1 NMatT0=    0 NMatD0=    1 NMtDS0=    0 NMtDT0=    0
 Symmetry not used in FoFCou.
 Leave Link  703 at Thu Mar 27 17:21:42 2025, MaxMem=  8053063680 cpu:               0.1 elap:               0.0
 (Enter /home/apps/g16_C02_zen2/g16/l716.exe)
 Dipole        =-1.05340089D+00-1.20419626D+00-4.97366259D-01
 ***** Axes restored to original set *****
 -------------------------------------------------------------------
 Center     Atomic                   Forces (Hartrees/Bohr)
 Number     Number              X              Y              Z
 -------------------------------------------------------------------
      1        6          -0.000093408   -0.000125625    0.000569831
      2        6           0.000017846   -0.000081579    0.000130584
      3        6          -0.000129195    0.000143477   -0.000174662
      4        6           0.000084203   -0.000055478    0.000133854
      5        6           0.000129454    0.000094153   -0.000273929
      6        6          -0.000368428    0.000049937    0.000494539
      7        6          -0.000223766    0.000199968   -0.000262071
      8        1          -0.000008065    0.000124405   -0.000044894
      9        1          -0.000039946    0.000017735   -0.000021809
     10        1          -0.000004553    0.000135202    0.000205859
     11        1          -0.000010262    0.000010819   -0.000032820
     12        1           0.000112298   -0.000025773    0.000091499
     13        1           0.000267611   -0.000198652   -0.000022265
     14        6          -0.000211340   -0.000109858    0.001061817
     15        1           0.000191956    0.000152249    0.000227475
     16        1          -0.000043735    0.000100904   -0.000279506
     17        6           0.000027078   -0.000173709   -0.000047985
     18        1           0.000023907   -0.000008126   -0.000041389
     19        1           0.000021710   -0.000052006    0.000021807
     20        6           0.000096154   -0.000108405   -0.000463315
     21        1           0.000012620   -0.000013758   -0.000081448
     22        6          -0.000330304    0.000627207   -0.000771415
     23        1          -0.000037363    0.000052941   -0.000075899
     24        1          -0.000028611    0.000067420   -0.000060949
     25        1          -0.000042291    0.000052920    0.000012695
     26        6          -0.000070932    0.000022464   -0.000316947
     27        1           0.000047839   -0.000161904    0.000025372
     28        1          -0.000041999   -0.000017106   -0.000246956
     29        6           0.000248238   -0.000363527    0.000039404
     30        1           0.000022631   -0.000031215    0.000002087
     31        1           0.000028960   -0.000025316    0.000021153
     32        1           0.000026063   -0.000035229   -0.000015565
     33        6          -0.000088436    0.000045004    0.000196324
     34        1          -0.000019176    0.000020231    0.000003439
     35        1          -0.000000293   -0.000005288   -0.000005402
     36        1           0.000000598    0.000000052    0.000031845
     37        6           0.000371160   -0.000230691    0.000138386
     38        1           0.000066179    0.000015502    0.000033220
     39        1           0.000107966   -0.000169477   -0.000078123
     40        1          -0.000112367    0.000060130   -0.000123843
 -------------------------------------------------------------------
 Cartesian Forces:  Max     0.001061817 RMS     0.000201227
 Leave Link  716 at Thu Mar 27 17:21:42 2025, MaxMem=  8053063680 cpu:               0.0 elap:               0.0
 (Enter /home/apps/g16_C02_zen2/g16/l103.exe)

 GradGradGradGradGradGradGradGradGradGradGradGradGradGradGradGradGradGrad
 Berny optimization.
 FormGI is forming the generalized inverse of G from B-inverse, IUseBI=4.
 Internal  Forces:  Max     0.001104196 RMS     0.000274980
 Search for a local minimum.
 Step number   1 out of a maximum of  240
 All quantities printed in internal units (Hartrees-Bohrs-Radians)
 RMS Force = .27498D-03 SwitMx=.10000D-02 MixMth= 2
 Mixed Optimization -- En-DIIS/RFO-DIIS
 Second derivative matrix not updated -- first step.
 ITU=  0
     Eigenvalues ---   -0.03155   0.00053   0.00101   0.00129   0.00158
     Eigenvalues ---    0.00193   0.00252   0.00514   0.00648   0.00950
     Eigenvalues ---    0.01279   0.01743   0.01901   0.01977   0.02199
     Eigenvalues ---    0.02676   0.02857   0.02974   0.03053   0.03176
     Eigenvalues ---    0.03200   0.03259   0.03359   0.03577   0.03635
     Eigenvalues ---    0.03751   0.03769   0.03786   0.03818   0.03883
     Eigenvalues ---    0.03931   0.03944   0.03958   0.03976   0.04137
     Eigenvalues ---    0.04280   0.04508   0.04880   0.04963   0.05073
     Eigenvalues ---    0.05323   0.05929   0.06126   0.06418   0.06630
     Eigenvalues ---    0.07111   0.07354   0.07960   0.08454   0.08959
     Eigenvalues ---    0.09336   0.09703   0.10491   0.10915   0.11022
     Eigenvalues ---    0.11155   0.11303   0.11433   0.11693   0.12057
     Eigenvalues ---    0.12667   0.12898   0.12938   0.13146   0.13341
     Eigenvalues ---    0.13497   0.13626   0.13796   0.14209   0.15271
     Eigenvalues ---    0.15666   0.16657   0.17870   0.19552   0.20194
     Eigenvalues ---    0.22858   0.23310   0.23864   0.24138   0.24325
     Eigenvalues ---    0.24952   0.24995   0.25162   0.25186   0.25327
     Eigenvalues ---    0.25388   0.25472   0.25727   0.25771   0.25816
     Eigenvalues ---    0.25873   0.25999   0.26158   0.26517   0.26991
     Eigenvalues ---    0.27192   0.27362   0.27701   0.28422   0.29277
     Eigenvalues ---    0.30519   0.30937   0.31511   0.32326   0.34774
     Eigenvalues ---    0.36155   0.36410   0.38306   0.39352   0.40477
     Eigenvalues ---    0.42185   0.45516   0.48993   0.53494
 Eigenvalue     1 is  -3.15D-02 should be greater than     0.000000 Eigenvector:
                          A28       D89       D87       D88       D76
   1                    0.41780   0.29808   0.28503   0.27579  -0.21959
                          D75       D77       D52       D74       R17
   1                   -0.21380  -0.21376  -0.19061   0.16683  -0.16683
 RFO step:  Lambda=-3.15475940D-02 EMin=-3.15475433D-02
 I=     1 Eig=   -3.15D-02 Dot1= -2.43D-05
 I=     1 Stepn= -6.00D-01 RXN=   6.00D-01 EDone=F
 Mixed    1 eigenvectors in step.  Raw Step.Grad=  2.43D-05.
 RFO eigenvector is Hessian eigenvector with negative curvature.
 Taking step of  6.00D-01 in eigenvector direction(s).  Step.Grad=  2.82D-04.
 Linear search not attempted -- first point.
 Maximum step size (   0.300) exceeded in Quadratic search.
    -- Step size not scaled.
 Iteration  1 RMS(Cart)=  0.03457900 RMS(Int)=  0.00345507
 Iteration  2 RMS(Cart)=  0.00474373 RMS(Int)=  0.00061999
 Iteration  3 RMS(Cart)=  0.00004850 RMS(Int)=  0.00061820
 Iteration  4 RMS(Cart)=  0.00000008 RMS(Int)=  0.00061820
 ITry= 1 IFail=0 DXMaxC= 4.06D-01 DCOld= 1.00D+10 DXMaxT= 3.00D-01 DXLimC= 3.00D+00 Rises=F
 Variable       Old X    -DE/DX   Delta X   Delta X   Delta X     New X
                                 (Linear)    (Quad)   (Total)
    R1        2.94521  -0.00029   0.00000  -0.00432  -0.00392   2.94129
    R2        2.73024  -0.00003   0.00000   0.02876   0.02909   2.75933
    R3        2.14339  -0.00011   0.00000  -0.00209  -0.00209   2.14130
    R4        2.13737  -0.00024   0.00000  -0.00343  -0.00343   2.13394
    R5        2.91285   0.00001   0.00000  -0.00056  -0.00052   2.91233
    R6        2.89304  -0.00017   0.00000   0.00214   0.00214   2.89518
    R7        2.90572   0.00010   0.00000  -0.00026  -0.00026   2.90546
    R8        2.84110   0.00009   0.00000   0.00020   0.00010   2.84120
    R9        2.08680  -0.00004   0.00000   0.00178   0.00178   2.08858
   R10        2.10911   0.00000   0.00000   0.00083   0.00083   2.10994
   R11        2.78247  -0.00035   0.00000  -0.07051  -0.07030   2.71217
   R12        2.84030  -0.00048   0.00000   0.02852   0.02857   2.86887
   R13        2.88523   0.00003   0.00000   0.00646   0.00571   2.89094
   R14        2.08587  -0.00014   0.00000  -0.00023  -0.00023   2.08564
   R15        2.84405  -0.00039   0.00000  -0.00617  -0.00621   2.83784
   R16        2.86065   0.00010   0.00000  -0.03456  -0.03487   2.82578
   R17        2.17929  -0.00008   0.00000   0.10010   0.10010   2.27939
   R18        2.92629  -0.00023   0.00000  -0.03149  -0.03110   2.89519
   R19        2.88305  -0.00018   0.00000  -0.00354  -0.00316   2.87990
   R20        2.84009   0.00003   0.00000  -0.00318  -0.00318   2.83691
   R21        2.08764   0.00030   0.00000   0.00297   0.00297   2.09061
   R22        2.09035   0.00029   0.00000   0.00322   0.00322   2.09358
   R23        2.89604   0.00006   0.00000   0.00143   0.00090   2.89695
   R24        2.09152   0.00004   0.00000  -0.00068  -0.00068   2.09085
   R25        2.09087   0.00003   0.00000   0.00114   0.00114   2.09201
   R26        2.91797   0.00006   0.00000  -0.00308  -0.00315   2.91482
   R27        2.12723  -0.00005   0.00000  -0.00361  -0.00361   2.12362
   R28        2.88772   0.00030   0.00000  -0.00415  -0.00415   2.88356
   R29        2.08866  -0.00005   0.00000  -0.00105  -0.00105   2.08761
   R30        2.07350  -0.00003   0.00000  -0.00052  -0.00052   2.07298
   R31        2.07667   0.00002   0.00000  -0.00309  -0.00309   2.07359
   R32        2.06368  -0.00017   0.00000  -0.00264  -0.00264   2.06105
   R33        2.05239  -0.00025   0.00000  -0.00303  -0.00303   2.04935
   R34        2.06946  -0.00000   0.00000  -0.00148  -0.00148   2.06797
   R35        2.07396   0.00001   0.00000   0.00137   0.00137   2.07533
   R36        2.07992  -0.00004   0.00000   0.00007   0.00007   2.08000
   R37        2.07065  -0.00000   0.00000   0.00040   0.00040   2.07104
   R38        2.08081  -0.00000   0.00000  -0.00060  -0.00060   2.08022
   R39        2.07191  -0.00001   0.00000   0.00109   0.00109   2.07300
   R40        2.08088   0.00006   0.00000   0.00027   0.00027   2.08115
   R41        2.07162   0.00020   0.00000  -0.00513  -0.00513   2.06649
   R42        2.08352   0.00017   0.00000  -0.00316  -0.00316   2.08037
    A1        2.13331   0.00003   0.00000  -0.02003  -0.02047   2.11284
    A2        1.87459   0.00044   0.00000   0.00916   0.00925   1.88383
    A3        1.86263  -0.00043   0.00000   0.00460   0.00469   1.86732
    A4        1.88119  -0.00029   0.00000  -0.00232  -0.00207   1.87912
    A5        1.92446   0.00025   0.00000   0.00710   0.00712   1.93158
    A6        1.74886   0.00002   0.00000   0.00668   0.00658   1.75544
    A7        1.94568   0.00031   0.00000  -0.00649  -0.00655   1.93913
    A8        1.89789  -0.00061   0.00000   0.00486   0.00471   1.90260
    A9        1.86732   0.00025   0.00000   0.00148   0.00167   1.86899
   A10        1.96053   0.00017   0.00000  -0.00012   0.00003   1.96056
   A11        1.89367  -0.00025   0.00000   0.00103   0.00094   1.89461
   A12        1.89583   0.00013   0.00000  -0.00060  -0.00063   1.89520
   A13        1.94043   0.00004   0.00000   0.00981   0.00989   1.95032
   A14        1.93451   0.00007   0.00000  -0.00789  -0.00800   1.92651
   A15        1.91145  -0.00008   0.00000   0.00201   0.00208   1.91353
   A16        1.96181  -0.00016   0.00000  -0.00142  -0.00164   1.96018
   A17        1.89705   0.00013   0.00000  -0.00315  -0.00298   1.89407
   A18        1.81368   0.00001   0.00000   0.00006   0.00006   1.81374
   A19        2.28059   0.00011   0.00000   0.03716   0.03525   2.31584
   A20        2.06632   0.00009   0.00000  -0.02842  -0.02961   2.03672
   A21        1.92691  -0.00017   0.00000   0.00381   0.00268   1.92959
   A22        2.08803  -0.00017   0.00000   0.01138   0.01056   2.09858
   A23        1.95131   0.00013   0.00000   0.00194   0.00245   1.95376
   A24        2.14028   0.00004   0.00000  -0.01238  -0.01275   2.12753
   A25        2.04365   0.00007   0.00000  -0.00688  -0.00666   2.03699
   A26        2.03279  -0.00014   0.00000   0.00593   0.00589   2.03868
   A27        2.09940  -0.00040   0.00000   0.04430   0.04248   2.14188
   A28        1.79914  -0.00015   0.00000  -0.25068  -0.24852   1.55062
   A29        1.84099   0.00030   0.00000   0.03620   0.03472   1.87571
   A30        1.85335   0.00085   0.00000   0.09173   0.09012   1.94347
   A31        1.99415  -0.00028   0.00000   0.01437   0.00993   2.00408
   A32        1.85350  -0.00032   0.00000   0.03692   0.03390   1.88740
   A33        2.06716   0.00034   0.00000   0.00762   0.00659   2.07375
   A34        2.04666   0.00034   0.00000   0.00355   0.00407   2.05073
   A35        2.01744   0.00061   0.00000   0.01249   0.01225   2.02969
   A36        2.02518  -0.00083   0.00000  -0.01173  -0.01129   2.01389
   A37        2.06728   0.00016   0.00000  -0.00248  -0.00249   2.06480
   A38        1.94633   0.00016   0.00000   0.01275   0.01246   1.95879
   A39        1.94936  -0.00021   0.00000  -0.01056  -0.01011   1.93925
   A40        1.83165   0.00009   0.00000   0.00450   0.00425   1.83590
   A41        1.83664   0.00004   0.00000  -0.00556  -0.00555   1.83109
   A42        1.96779   0.00025   0.00000  -0.01475  -0.01415   1.95364
   A43        1.93499  -0.00034   0.00000   0.01355   0.01313   1.94812
   A44        1.94691  -0.00018   0.00000   0.00272   0.00333   1.95024
   A45        1.94669   0.00043   0.00000  -0.00312  -0.00328   1.94341
   A46        1.84191  -0.00035   0.00000   0.00111   0.00019   1.84210
   A47        1.83161  -0.00006   0.00000  -0.00012  -0.00023   1.83138
   A48        1.95814   0.00023   0.00000   0.01106   0.01092   1.96905
   A49        1.94132  -0.00004   0.00000  -0.01180  -0.01114   1.93018
   A50        1.84954   0.00038   0.00000  -0.01117  -0.01143   1.83811
   A51        1.92661   0.00008   0.00000  -0.00854  -0.00825   1.91837
   A52        1.93532  -0.00080   0.00000   0.01709   0.01677   1.95209
   A53        1.91441  -0.00029   0.00000   0.00113   0.00072   1.91513
   A54        1.95425   0.00007   0.00000  -0.00019   0.00046   1.95472
   A55        1.88409   0.00056   0.00000   0.00131   0.00127   1.88537
   A56        1.92808   0.00011   0.00000   0.00394   0.00394   1.93203
   A57        1.97302   0.00005   0.00000  -0.00294  -0.00294   1.97008
   A58        1.96332  -0.00013   0.00000  -0.00085  -0.00086   1.96246
   A59        1.85062  -0.00001   0.00000   0.00057   0.00057   1.85119
   A60        1.85283  -0.00001   0.00000   0.00229   0.00229   1.85511
   A61        1.88868  -0.00001   0.00000  -0.00269  -0.00270   1.88598
   A62        2.08349   0.00005   0.00000   0.00166   0.00236   2.08585
   A63        2.11246  -0.00012   0.00000  -0.00166  -0.00217   2.11028
   A64        2.08132   0.00008   0.00000  -0.00728  -0.00678   2.07454
   A65        2.11004  -0.00016   0.00000   0.00296   0.00264   2.11268
   A66        1.90100   0.00004   0.00000   0.00072   0.00065   1.90165
   A67        1.96627  -0.00001   0.00000  -0.00077  -0.00077   1.96550
   A68        1.95649  -0.00006   0.00000  -0.00174  -0.00174   1.95476
   A69        1.93820   0.00005   0.00000   0.00087   0.00087   1.93907
   A70        1.87672   0.00001   0.00000  -0.00122  -0.00122   1.87549
   A71        1.86696   0.00001   0.00000   0.00193   0.00192   1.86889
   A72        1.85306   0.00001   0.00000   0.00114   0.00114   1.85420
   A73        1.96545  -0.00001   0.00000  -0.00077  -0.00077   1.96468
   A74        1.93525  -0.00000   0.00000   0.00123   0.00123   1.93648
   A75        1.96234   0.00003   0.00000  -0.00286  -0.00286   1.95948
   A76        1.85952  -0.00001   0.00000   0.00181   0.00181   1.86133
   A77        1.88450  -0.00001   0.00000  -0.00047  -0.00048   1.88402
   A78        1.85013  -0.00001   0.00000   0.00140   0.00140   1.85153
   A79        1.95386  -0.00005   0.00000   0.00408   0.00407   1.95793
   A80        1.96410  -0.00007   0.00000   0.00201   0.00199   1.96610
   A81        1.95193   0.00009   0.00000  -0.00546  -0.00546   1.94646
   A82        1.88645   0.00002   0.00000   0.00179   0.00177   1.88823
   A83        1.84296   0.00001   0.00000   0.00031   0.00031   1.84328
   A84        1.85758   0.00000   0.00000  -0.00297  -0.00298   1.85460
    D1       -0.72307   0.00020   0.00000  -0.00431  -0.00457  -0.72764
    D2        1.44775   0.00019   0.00000  -0.00544  -0.00568   1.44208
    D3       -2.79084   0.00017   0.00000  -0.00283  -0.00306  -2.79390
    D4        1.46160   0.00024   0.00000  -0.01515  -0.01527   1.44633
    D5       -2.65076   0.00024   0.00000  -0.01628  -0.01637  -2.66714
    D6       -0.60617   0.00021   0.00000  -0.01368  -0.01376  -0.61993
    D7       -2.95866   0.00026   0.00000  -0.00199  -0.00200  -2.96067
    D8       -0.78783   0.00026   0.00000  -0.00311  -0.00311  -0.79094
    D9        1.25676   0.00023   0.00000  -0.00051  -0.00049   1.25627
   D10        0.28592   0.00070   0.00000  -0.05768  -0.05753   0.22839
   D11       -3.01786   0.00097   0.00000   0.04991   0.05015  -2.96771
   D12       -1.89577   0.00032   0.00000  -0.05193  -0.05200  -1.94778
   D13        1.08363   0.00059   0.00000   0.05566   0.05568   1.13931
   D14        2.49437   0.00033   0.00000  -0.06181  -0.06193   2.43244
   D15       -0.80941   0.00060   0.00000   0.04578   0.04575  -0.76366
   D16        1.49904  -0.00047   0.00000   0.00246   0.00194   1.50099
   D17       -0.69642  -0.00034   0.00000   0.00290   0.00274  -0.69367
   D18       -2.68743  -0.00034   0.00000   0.00608   0.00594  -2.68149
   D19       -0.63613  -0.00002   0.00000   0.00099   0.00061  -0.63552
   D20       -2.83159   0.00011   0.00000   0.00143   0.00141  -2.83018
   D21        1.46058   0.00011   0.00000   0.00461   0.00461   1.46519
   D22       -2.73223  -0.00013   0.00000   0.00112   0.00076  -2.73147
   D23        1.35550  -0.00000   0.00000   0.00157   0.00156   1.35705
   D24       -0.63551  -0.00000   0.00000   0.00475   0.00475  -0.63076
   D25       -0.98133   0.00001   0.00000   0.00474   0.00482  -0.97651
   D26        1.13836  -0.00003   0.00000   0.00130   0.00138   1.13975
   D27       -3.07521  -0.00003   0.00000   0.00219   0.00226  -3.07295
   D28        1.18069   0.00009   0.00000  -0.00013  -0.00015   1.18054
   D29       -2.98280   0.00005   0.00000  -0.00357  -0.00359  -2.98639
   D30       -0.91320   0.00005   0.00000  -0.00269  -0.00271  -0.91590
   D31       -3.00766  -0.00003   0.00000   0.00068   0.00062  -3.00704
   D32       -0.88796  -0.00007   0.00000  -0.00276  -0.00282  -0.89078
   D33        1.18165  -0.00006   0.00000  -0.00187  -0.00194   1.17971
   D34        1.15974   0.00032   0.00000  -0.00616  -0.00613   1.15361
   D35       -3.04168   0.00030   0.00000  -0.00353  -0.00350  -3.04518
   D36       -0.97392   0.00031   0.00000  -0.00281  -0.00279  -0.97670
   D37       -0.94156  -0.00006   0.00000   0.00015   0.00019  -0.94136
   D38        1.14021  -0.00008   0.00000   0.00279   0.00283   1.14303
   D39       -3.07521  -0.00007   0.00000   0.00350   0.00354  -3.07167
   D40       -3.07749  -0.00020   0.00000   0.00004  -0.00003  -3.07752
   D41       -0.99573  -0.00021   0.00000   0.00267   0.00261  -0.99312
   D42        1.07204  -0.00020   0.00000   0.00338   0.00332   1.07536
   D43       -1.17303  -0.00009   0.00000   0.01133   0.01142  -1.16161
   D44        1.31167  -0.00002   0.00000   0.01757   0.01778   1.32945
   D45       -2.42851  -0.00002   0.00000   0.01254   0.01303  -2.41549
   D46        1.00717  -0.00009   0.00000   0.00741   0.00723   1.01440
   D47       -2.79132  -0.00002   0.00000   0.01365   0.01359  -2.77772
   D48       -0.24831  -0.00002   0.00000   0.00862   0.00884  -0.23947
[...]
 005289,0.00013134,-0.00004170,0.00012379,-0.00011817,-0.00002343,-0.00
 003755,0.00004472,0.00001356,0.00000943,0.00011149,0.00002183,-0.00003
 889,0.00002593,0.00000767,-0.00002926,0.00002213,0.00004813,-0.0000068
 3,-0.00001206,-0.00002378,0.00000039,-0.00003235,0.00000669,0.00035352
 ,-0.00042804,0.00006586,-0.00005431,-0.00001710,-0.00005651,-0.0002764
 3,0.00020007,0.00052851,-0.00003466,-0.00008769,0.00023985,0.03467456,
 -0.19445486,-0.04054394,0.00331021,-0.00454908,-0.00894350,0.01111899,
 -0.01007572,0.00005040,-0.03681481,0.24397567,-0.00037071,-0.00000284,
 -0.00090153,0.00077207,0.00790275,0.00548647,0.00054650,0.00065317,-0.
 00033620,-0.00026126,-0.00006354,0.00021529,-0.00000976,0.00013293,0.0
 0001546,0.00003180,0.00003079,-0.00008190,-0.00000908,-0.00000325,0.00
 004411,-0.00041875,-0.00030827,0.00013386,-0.00000291,-0.00007928,0.00
 002995,-0.00011174,0.00001457,0.00049094,0.00008370,0.00000065,0.00006
 416,0.00002474,0.00002293,0.00005778,-0.00002238,-0.00001950,0.0000197
 1,0.00000593,0.00001180,-0.00000651,-0.00000334,-0.00000727,0.00000527
 ,-0.00000405,-0.00000044,-0.00000293,0.00002162,-0.00000072,-0.0000131
 1,-0.00000577,-0.00000015,0.00000830,-0.00000255,-0.00000046,0.0000025
 5,0.00007342,-0.00004415,-0.00003682,-0.00000654,0.00001421,0.00001701
 ,-0.00009687,-0.00003693,-0.00000783,0.00001115,0.00001157,-0.00000097
 ,0.00007970,0.00004066,0.00002774,0.00003641,0.00001165,0.00000799,0.0
 0002887,0.00003143,-0.00004723,-0.00000039,0.00001100,-0.00001066,-0.0
 0000919,-0.00001687,0.00001827,-0.00020852,-0.00006607,-0.00054311,0.0
 0002114,0.00009256,-0.00002978,0.00063433,0.00038688,-0.00063475,0.000
 11732,0.00036199,-0.00011662,0.00979022,-0.04136581,-0.04859042,0.0075
 9591,-0.02304803,-0.01150457,-0.00395091,0.00745967,0.00599148,-0.0143
 7493,0.04786956,0.05023988,0.00230849,-0.00006640,0.00023264,-0.001217
 35,0.00112155,-0.00063674,-0.00162768,0.00057260,0.00107700,-0.0024848
 7,-0.00186658,-0.00056002,-0.02451120,-0.00680803,0.02004968,0.0059379
 4,0.00437989,-0.00566716,-0.09536083,-0.02138614,0.06516500,-0.0003073
 0,0.00018964,0.00002941,-0.00005482,-0.00003341,-0.00020220,-0.0000774
 5,0.00004237,-0.00003692,0.00009564,-0.00021245,-0.00000211,-0.0002252
 0,-0.00076585,-0.00039265,-0.00064985,0.00080975,-0.00055476,-0.000747
 67,0.00134006,-0.00289147,0.00019825,0.00018261,0.00020759,-0.00103547
 ,-0.00011758,-0.00050475,-0.00098373,0.00109957,-0.00126019,0.00008933
 ,-0.00053342,0.00035990,0.00024396,-0.00013337,0.00003013,0.00017655,0
 .00024337,-0.00029437,0.00004321,-0.00012317,0.00003811,0.00062821,0.0
 0066619,0.00012825,-0.00005014,-0.00022079,-0.00005718,-0.00016394,-0.
 00007958,-0.00006756,-0.00044285,0.00008704,-0.00009508,-0.01156406,0.
 00455085,0.01485872,0.00003634,0.00021281,-0.00010323,-0.00048132,-0.0
 0028101,-0.00031714,0.00008868,-0.00128735,0.00028380,-0.00004475,0.00
 067431,-0.00010182,-0.00005087,0.00017321,0.00000809,0.00012636,0.0003
 2535,0.00003748,0.00021447,-0.00043002,0.00021953,-0.00002855,0.000061
 88,-0.00006620,0.00004273,0.00009857,-0.00003865,-0.00005191,0.0000677
 1,-0.00001493,0.42763183,-0.00142063,-0.00062301,0.00087002,0.00079912
 ,-0.00008955,-0.00031248,-0.00179232,0.00089541,0.00028890,0.00086094,
 0.00161821,-0.00022516,-0.00942657,-0.00139900,0.00922120,-0.00254892,
 -0.00830029,0.02018730,-0.01871692,-0.06819592,0.02952997,0.00015513,0
 .00002238,-0.00030329,0.00014100,-0.00007823,-0.00011952,0.00007184,0.
 00018595,-0.00014484,0.00005316,-0.00028830,0.00004340,0.00055067,-0.0
 0057021,0.00011238,0.00074591,-0.00095461,0.00044916,0.00073347,0.0012
 9624,0.00102796,-0.00018917,-0.00028759,-0.00010819,-0.00014002,-0.000
 69923,-0.00019097,0.00138255,-0.00064865,0.00079319,-0.00025584,-0.000
 12184,-0.00000988,-0.00028699,-0.00006016,-0.00000714,0.00053071,-0.00
 068904,0.00056728,-0.00011983,0.00021835,-0.00020476,0.00046876,-0.001
 39166,-0.00008524,-0.00020167,0.00027769,0.00014058,-0.00003186,0.0002
 9548,0.00008589,-0.00010398,-0.00001886,0.00003292,0.01088440,0.005185
 29,-0.01585923,-0.00115180,-0.00044790,0.00029324,0.00178488,-0.000735
 73,0.00000490,-0.00110677,-0.00043835,0.00001691,0.00042115,0.00028845
 ,-0.00003805,0.00017585,0.00014154,0.00007297,0.00029360,0.00002413,0.
 00006781,-0.00035474,-0.00006658,0.00016099,0.00006736,0.00001032,-0.0
 0006243,0.00011514,0.00000243,0.00000251,0.00007160,0.00004089,-0.0000
 2845,-0.00216902,0.40580281,0.00160020,0.00087083,0.00021515,-0.000923
 22,0.00027796,-0.00056297,-0.00013447,-0.00006483,0.00043534,-0.000675
 70,-0.00339422,-0.00213935,0.01028870,0.00103317,0.00054243,0.00115569
 ,0.01948532,-0.02747012,0.06315227,0.02994989,-0.16459770,-0.00020786,
 -0.00006186,0.00014581,-0.00016962,-0.00003361,-0.00003464,-0.00001911
 ,-0.00017474,-0.00008952,-0.00015527,-0.00008742,-0.00002855,0.0001637
 1,0.00004732,-0.00054827,-0.00060568,0.00084337,-0.00042789,-0.0015688
 7,0.00174264,-0.00292147,0.00031408,0.00014778,0.00019860,-0.00080625,
 -0.00020630,-0.00071722,-0.00091813,0.00038030,0.00011423,0.00025504,-
 0.00003764,-0.00042351,0.00019020,-0.00004073,-0.00006042,-0.00034576,
 0.00098769,0.00034925,0.00003906,-0.00026152,0.00001443,0.00007704,-0.
 00057620,0.00051658,-0.00000595,0.00005149,-0.00011308,-0.00000109,0.0
 0002278,-0.00010929,-0.00004265,0.00009932,-0.00046422,0.01815629,-0.0
 0362433,-0.01757783,-0.00073194,0.00022858,-0.00047823,0.00113227,-0.0
 0024830,0.00019127,0.00001884,-0.00037748,0.00071629,0.00009902,0.0003
 1178,-0.00037330,-0.00001108,0.00005436,-0.00011123,0.00003496,0.00010
 653,-0.00013745,0.00028568,0.00007444,0.00019890,-0.00006135,-0.000026
 49,0.00000197,-0.00007348,0.00000976,-0.00006638,-0.00003620,-0.000055
 00,-0.00004195,-0.02724123,-0.01083756,0.44363546,-0.00016576,0.000076
 19,-0.00004762,0.00010222,-0.00008705,0.00006684,-0.00016377,0.0001357
 6,-0.00003409,0.00034011,-0.00064229,-0.00014254,-0.00065166,-0.000444
 21,0.00098768,-0.00033738,0.00077980,-0.00045992,-0.02077728,-0.017755
 68,0.01217566,0.00003413,-0.00002904,0.00000477,-0.00001864,-0.0000152
 7,0.00002251,0.00000849,0.00000030,0.00002260,-0.00002528,-0.00004206,
 0.00004109,-0.00003220,-0.00011628,0.00002362,0.00005520,-0.00003502,0
 .00004551,0.00001670,0.00019931,-0.00015164,0.00000044,0.00004041,-0.0
 0009066,0.00024045,-0.00012438,-0.00035158,-0.00006872,-0.00006632,0.0
 0012855,-0.00001971,0.00034972,-0.00008289,-0.00002111,0.00010327,-0.0
 0003854,-0.00017100,0.00004380,0.00008641,-0.00000087,0.00001330,0.000
 00288,-0.00023510,0.00000586,-0.00003775,0.00004928,0.00002792,0.00000
 381,0.00004202,0.00000306,-0.00000039,0.00010405,-0.00006162,0.0000214
 5,0.00008435,0.00020333,-0.00082188,-0.00028124,0.00015554,0.00027386,
 0.00010594,0.00004190,0.00016246,0.00002264,0.00015815,-0.00003601,-0.
 00000811,-0.00008303,-0.00000268,-0.00001209,-0.00000928,0.00000156,-0
 .00001229,-0.00005870,0.00000258,0.00000933,0.00008602,-0.00004095,-0.
 00001203,-0.00001924,0.00000850,-0.00000910,-0.00002647,0.00001566,-0.
 00000988,-0.00001210,0.00000870,-0.13758703,-0.08201819,-0.02494726,0.
 17025900,0.00041552,0.00019250,-0.00015521,-0.00022541,0.00003706,0.00
 000830,0.00013689,-0.00002932,-0.00003442,-0.00033255,-0.00073330,0.00
 036941,-0.00014033,0.00013880,0.00033595,0.00003473,-0.00001696,-0.000
 21842,-0.01596811,-0.00670424,0.00819084,-0.00004326,-0.00001721,0.000
 06293,-0.00004339,0.00000076,0.00001880,-0.00001718,-0.00003403,0.0000
 3152,-0.00001269,0.00000924,0.00000778,-0.00001623,0.00001622,-0.00004
 314,-0.00004168,0.00009124,0.00010705,0.00004335,-0.00086876,0.0004719
 7,0.00009147,0.00011447,0.00009018,0.00070113,0.00049564,0.00106471,-0
 .00029594,0.00008856,-0.00017390,0.00042353,-0.00031869,0.00012138,0.0
 0016410,-0.00002729,0.00003965,-0.00010007,0.00015292,-0.00011015,0.00
 004572,-0.00008730,0.00005513,-0.00000744,0.00028609,0.00004078,0.0000
 5832,-0.00011468,-0.00003767,0.00001027,-0.00006511,-0.00002866,-0.000
 02334,-0.00016455,-0.00002824,-0.00012550,-0.00017572,-0.00015703,0.00
 022251,0.00029747,-0.00019712,0.00014094,0.00005518,0.00003399,0.00017
 174,0.00004643,0.00002355,-0.00005592,-0.00003787,-0.00001879,-0.00004
 358,-0.00000640,-0.00001111,-0.00004035,-0.00002306,-0.00000583,0.0000
 9600,0.00004230,-0.00002771,-0.00002238,-0.00001505,0.00001275,-0.0000
 1813,-0.00001422,0.00000469,-0.00002464,-0.00001830,0.00000758,-0.0816
 0487,-0.10313939,-0.02147067,0.10704820,0.12134576,-0.00035473,-0.0001
 9253,-0.00000681,0.00019895,-0.00009310,0.00006271,0.00026927,-0.00011
 380,-0.00008549,0.00025065,0.00052814,0.00003910,0.00122624,0.00056033
 ,-0.00204592,0.00017229,-0.00014559,-0.00003730,0.02344193,0.01685260,
 -0.00274918,0.00005887,0.00000821,-0.00003789,0.00002276,0.00000547,0.
 00002202,0.00000122,0.00004631,0.00001557,0.00005257,0.00004866,-0.000
 01971,-0.00015460,0.00005410,0.00005778,0.00006574,0.00002593,-0.00004
 981,-0.00020915,0.00086065,-0.00079551,-0.00008667,0.00005486,-0.00012
 833,-0.00096663,0.00002292,-0.00086116,0.00009369,0.00003682,-0.000185
 61,-0.00006305,-0.00002005,0.00023403,-0.00005623,0.00003752,0.0000131
 5,0.00001810,-0.00019218,-0.00006505,-0.00000992,0.00006300,-0.0000044
 9,0.00001715,0.00005386,-0.00009963,-0.00001382,-0.00001165,0.00003611
 ,0.00000354,0.00001185,0.00001423,-0.00001731,-0.00007346,0.00008802,-
 0.00024298,-0.00004923,0.00067891,0.00020936,-0.00011867,0.00009604,-0
 .00005123,0.00009584,-0.00002579,-0.00008000,0.00000155,-0.00007440,0.
 00001828,0.00000308,0.00003126,0.00000746,0.00001769,0.00002177,0.0000
 2396,-0.00001146,0.00001816,-0.00005929,-0.00000167,-0.00001990,0.0000
 0732,-0.00000761,-0.00001109,0.00002194,-0.00001472,0.00001620,-0.0000
 0315,0.00001750,0.00001152,-0.02680222,-0.02271482,-0.04319512,0.02543
 194,0.02119851,0.05308324,-0.00045772,0.00011336,-0.00015919,0.0002039
 0,-0.00022483,0.00026997,0.00008973,-0.00001522,-0.00019348,0.00087376
 ,-0.00047635,-0.00001641,0.00001558,0.00021687,-0.00034528,-0.00012558
 ,0.00051749,-0.00033444,-0.00848784,0.01037508,0.01947403,0.00006045,-
 0.00003753,0.00002209,-0.00000026,0.00000843,0.00003296,0.00003067,-0.
 00005145,0.00001434,-0.00004236,0.00001929,0.00003568,-0.00024544,0.00
 003902,0.00018438,0.00002402,-0.00001116,-0.00002748,0.00004243,-0.000
 02766,0.00013287,-0.00004296,-0.00003176,-0.00006008,-0.00001719,-0.00
 007358,-0.00028969,0.00000544,0.00006577,-0.00000836,-0.00077378,0.000
 40846,-0.00034923,-0.00012840,0.00005412,-0.00007308,-0.00014642,0.000
 18312,0.00014285,-0.00001644,0.00001135,-0.00001910,-0.00050550,-0.000
 20908,-0.00009137,0.00004719,0.00015507,-0.00000935,0.00008819,-0.0000
 0623,0.00003476,0.00051851,-0.00005759,0.00012206,-0.00058940,-0.00036
 882,0.00108739,0.00010103,0.00000983,0.00007379,-0.00020340,0.00008812
 ,0.00009942,0.00013213,0.00041535,-0.00011946,-0.00021291,-0.00041569,
 0.00003169,-0.00000652,-0.00010999,-0.00002015,-0.00010800,-0.00009244
 ,-0.00000940,-0.00001473,0.00010885,-0.00009011,0.00000475,-0.00000481
 ,0.00001628,-0.00002667,-0.00001669,0.00000885,0.00001234,-0.00003045,
 0.00000143,-0.05958303,0.04972887,0.03066040,0.00644318,-0.01417426,-0
 .00691070,0.06888180,0.00049543,0.00000192,-0.00034598,-0.00028760,0.0
 0013063,0.00013488,0.00002929,-0.00006652,-0.00000911,-0.00060880,-0.0
 0000077,0.00134092,0.00024742,0.00002811,0.00008599,0.00009184,-0.0002
 1185,0.00003631,0.00180483,0.00533582,-0.00366305,-0.00005998,0.000027
 13,0.00008393,-0.00001008,0.00001622,0.00000894,-0.00003818,-0.0000193
 2,0.00008083,-0.00002335,0.00002213,0.00001165,0.00003690,0.00008499,-
 0.00002587,-0.00005491,0.00003838,0.00001001,-0.00003362,-0.00032642,0
 .00012132,0.00000766,0.00003470,0.00000883,-0.00003249,0.00019334,-0.0
 0020738,-0.00003453,-0.00013537,0.00012648,0.00031529,0.00025799,-0.00
 001996,0.00006453,0.00003327,0.00002783,-0.00002500,-0.00019356,-0.000
 27017,0.00003617,-0.00001952,0.00009466,0.00014632,-0.00005840,0.00045
 730,0.00010084,-0.00015410,-0.00006302,-0.00001994,-0.00016675,-0.0000
 3410,-0.00009438,-0.00003999,-0.00063033,-0.00063320,-0.00017504,0.000
 83192,0.00008958,-0.00004196,-0.00005321,-0.00014595,0.00004036,-0.000
 04347,0.00036891,-0.00006070,-0.00004874,-0.00023508,-0.00000407,-0.00
 000338,-0.00009154,-0.00003497,-0.00000053,-0.00008826,0.00002761,-0.0
 0000482,0.00011622,-0.00004003,-0.00007881,-0.00001862,0.00001419,0.00
 002790,-0.00003447,0.00001834,0.00000426,-0.00002027,-0.00000119,0.000
 01554,0.05158854,-0.14964007,-0.06870269,-0.00045964,-0.01860867,-0.01
 117600,-0.06416062,0.17811391,-0.00051278,-0.00031308,-0.00000293,0.00
 027903,-0.00002081,0.00014775,-0.00026884,0.00008883,-0.00004129,0.000
 29623,0.00159427,-0.00028269,-0.00013866,-0.00038343,0.00019325,0.0001
 5617,-0.00067647,-0.00008247,0.02054251,-0.01683006,-0.02746040,0.0000
 5792,0.00001802,-0.00007308,0.00004384,-0.00000556,-0.00001446,-0.0000
 0189,0.00008195,0.00003364,0.00002602,-0.00002342,0.00001427,0.0000418
 1,0.00000499,0.00022439,0.00006987,-0.00007689,-0.00007310,-0.00003260
 ,0.00004004,-0.00004752,-0.00008630,-0.00004610,-0.00009795,-0.0001881
 3,-0.00007421,-0.00035473,0.00008557,0.00015628,-0.00034623,-0.0007101
 4,0.00026793,0.00012507,-0.00013704,0.00003759,0.00000763,0.00014232,-
 0.00028287,-0.00019390,-0.00004162,0.00013537,-0.00002351,0.00004685,0
 .00013560,-0.00023056,-0.00000617,-0.00002765,0.00009179,-0.00001110,-
 0.00000811,0.00006207,-0.00006022,0.00018409,0.00038392,0.00131728,0.0
 0056046,-0.00174597,-0.00012440,0.00003332,-0.00002662,0.00031168,-0.0
 0014437,-0.00002265,0.00001457,0.00003776,-0.00027593,-0.00000255,-0.0
 0001656,0.00018623,-0.00000915,-0.00001287,0.00005289,-0.00002817,-0.0
 0000894,0.00005156,-0.00007682,-0.00005145,-0.00006109,0.00001711,0.00
 001291,-0.00000162,0.00001152,0.00000540,0.00001580,0.00000839,0.00002
 266,0.00001445,0.02987919,-0.06606238,-0.07652752,-0.00034967,-0.01090
 202,-0.00062830,-0.04608358,0.08368185,0.09977830,-0.00046709,0.000001
 22,-0.00005436,0.00029475,-0.00019648,0.00016826,-0.00016313,0.0001102
 1,-0.00021143,0.00035942,0.00061800,0.00022566,-0.00050647,-0.00086361
 ,0.00085505,-0.00053967,-0.00134999,0.00155477,0.00802456,-0.00448578,
 0.00723247,0.00004428,-0.00003992,0.00002361,0.00002855,0.00001065,0.0
 0002367,0.00002226,-0.00002652,-0.00000048,-0.00001765,-0.00003230,0.0
 0005976,-0.00086640,-0.00044527,0.00051500,0.00011598,-0.00012194,0.00
 007841,-0.00011132,0.00007587,-0.00013317,-0.00001455,0.00000425,-0.00
 000579,0.00001663,0.00006655,-0.00008722,-0.00003200,-0.00004134,0.000
 07688,-0.00004083,0.00009426,-0.00009393,0.00000661,0.00001044,-0.0000
 0257,-0.00002041,-0.00001338,0.00001631,0.00001146,-0.00001647,0.00001
 606,-0.00008352,-0.00012743,0.00002366,0.00001659,0.00004078,-0.000002
 00,0.00002236,0.00002038,0.00001403,0.00005492,0.00008286,-0.00000919,
 0.00004421,0.00002079,0.00026585,0.00002857,0.00014867,0.00043768,-0.0
 0002373,0.00004092,0.00004333,-0.00011065,0.00030055,-0.00013106,0.000
 07608,-0.00015439,0.00003792,0.00002057,-0.00004539,0.00000742,-0.0000
 1073,-0.00011504,0.00003107,-0.00007260,0.00008216,-0.00007465,0.00001
 298,-0.00000065,0.00003069,0.00000491,-0.00001544,0.00001668,0.0000251
 0,-0.00002318,-0.00000028,-0.09853011,0.05199930,-0.06794241,-0.017296
 91,0.00357280,-0.01553124,-0.00584068,0.01167053,-0.00447794,0.1155180
 1,0.00014107,0.00015989,-0.00024793,-0.00011102,-0.00006592,0.00015455
 ,0.00022953,-0.00009748,-0.00011740,0.00001520,-0.00043098,0.00057293,
 -0.00056132,-0.00000563,0.00067426,-0.00024266,0.00008671,0.00029154,0
 .00164152,-0.00432961,0.01653436,-0.00000662,-0.00002094,0.00004249,-0
 .00003411,0.00000946,0.00002864,-0.00001129,-0.00004160,0.00004653,-0.
 00006652,0.00004836,0.00000772,-0.00065115,0.00015332,0.00012915,0.000
 03630,-0.00005397,0.00012852,-0.00006627,0.00001051,-0.00014563,0.0000
 0682,0.00003695,0.00000897,0.00005362,0.00008948,0.00008669,-0.0000645
 6,0.00001344,-0.00004083,0.00011180,-0.00002912,0.00004371,0.00002786,
 0.00000281,0.00000672,-0.00009918,0.00008578,-0.00009255,0.00000562,-0
 .00002320,0.00002753,-0.00015272,0.00025855,-0.00005739,0.00005085,-0.
 00007203,-0.00002003,0.00003089,-0.00008452,-0.00000276,0.00010592,-0.
 00018119,0.00004583,-0.00021412,-0.00045641,0.00001361,0.00027342,0.00
 029718,-0.00057449,0.00008326,0.00001913,0.00002114,0.00030742,0.00027
 820,-0.00008534,-0.00015194,-0.00025679,0.00006099,-0.00004578,-0.0000
 7886,-0.00002261,-0.00014455,-0.00005805,-0.00002237,0.00009486,0.0000
 7071,-0.00006466,-0.00001251,-0.00000924,0.00001405,-0.00005105,-0.000
 00851,-0.00000560,-0.00001450,-0.00002214,0.00000784,0.04963092,-0.077
 42069,0.05355659,-0.00736593,0.00780946,-0.00566872,0.01807761,-0.0144
 2008,0.00886772,-0.06085666,0.08873726,-0.00010820,-0.00019326,0.,0.00
 007923,0.00009642,0.00011383,-0.00026936,0.00000648,0.00002621,-0.0000
 6765,0.00040258,-0.00021943,0.00080681,0.00047965,-0.00105163,0.000875
 81,0.00070341,-0.00151533,-0.00613888,0.02017289,-0.03437284,-0.000004
 38,0.00003432,0.00000472,0.00002974,0.00001044,-0.00002920,0.00000824,
 0.00002081,-0.00000008,0.00008673,-0.00002061,0.00002420,0.00072946,0.
 00018257,0.00034261,-0.00012830,0.00022113,-0.00022048,0.00015632,-0.0
 0015146,0.00013006,-0.00001659,0.00000323,-0.00001726,-0.00011068,0.00
 007815,-0.00012517,0.00013195,-0.00004624,0.00001541,-0.00009732,0.000
 04898,0.00004216,-0.00002067,0.00000172,0.00001348,0.00004849,-0.00012
 533,-0.00007366,0.00000784,0.00001632,0.00001323,-0.00000904,-0.000031
 13,-0.00008577,0.00000246,0.00001334,0.00002838,-0.00000485,0.00000515
 ,0.00002940,0.00002503,-0.00000518,0.00011273,0.00038883,0.00007376,-0
 .00061929,0.00047604,-0.00048070,-0.00045931,-0.00004276,-0.00007096,-
 0.00015752,-0.00002758,-0.00000212,-0.00023563,-0.00000205,-0.00002512
 ,0.00013609,0.00001050,-0.00001337,0.00003756,0.00001580,-0.00001419,0
 .00008414,-0.00006475,-0.00009613,-0.00004985,0.00001546,0.00002616,0.
 00000437,0.00003746,0.00001491,0.00002007,0.00001165,0.00001091,0.0000
 0439,-0.06469649,0.05334403,-0.10805840,-0.01190261,0.00132281,-0.0034
 1302,0.00276476,-0.00181025,0.00723143,0.07700371,-0.07420388,0.142289
 33\\0.00002862,0.00006491,-0.00003769,0.00003950,0.00002558,-0.0000065
 7,-0.00003544,0.00001108,-0.00000697,-0.00002808,0.00001167,-0.0000184
 0,-0.00001458,-0.00002623,0.00001913,-0.00003351,-0.00002359,-0.000058
 52,0.00001583,-0.00006602,-0.00001092,0.00000064,0.00000694,-0.0000182
 9,-0.00001041,-0.00000179,-0.00000321,-0.00000359,0.00001316,0.0000022
 6,0.00000752,-0.00000241,0.00000040,-0.00000316,-0.00000145,0.00000550
 ,0.00001200,0.00000325,-0.00001174,-0.00001799,-0.00000375,-0.00002337
 ,0.00001136,0.00000356,0.00000492,0.00000508,0.00001304,-0.00000332,0.
 00004816,-0.00000823,-0.00000442,0.00000739,0.00000459,0.00000203,0.00
 000625,-0.00000264,-0.00000088,-0.00001968,0.00003147,-0.00001824,0.00
 001676,-0.00000706,0.00000648,-0.00001234,0.00004610,0.00002986,0.0000
 1695,-0.00001366,-0.00000825,0.00000541,-0.00000883,-0.00000087,-0.000
 00262,0.00000704,0.00001927,0.00000412,0.00000013,0.00000440,-0.000001
 12,0.00000365,0.00000294,0.00000655,0.00000622,-0.00000520,0.00005967,
 0.00003253,0.00004870,0.00000398,0.00000504,0.00001669,-0.00000401,-0.
 00000822,0.00000235,-0.00001580,-0.00000447,0.00000051,-0.00007031,-0.
 00002735,0.00000285,-0.00000921,-0.00000725,-0.00000069,-0.00000096,-0
 .00000223,0.00000011,-0.00001123,-0.00000649,0.00000154,0.00000265,-0.
 00007947,0.00004886,0.00000290,0.00000207,0.00000345,-0.00000510,-0.00
 000644,0.00001495,-0.00000221,0.00001556,0.00000036\\\@
 The archive entry for this job was punched.


 WE STILL HAVE JUDGEMENT HERE,
 THAT WE TEACH BUT BLOODY INSTRUCTIONS,
 WHICH, BEING TAUGHT,
 RETURN TO PLAGUE THE INVENTOR.
           MACBETH ACT I, SCENE VII
 Job cpu time:       0 days  0 hours  0 minutes  2.3 seconds.
 Elapsed time:       0 days  0 hours  0 minutes  0.8 seconds.
 File lengths (MBytes):  RWF=    114 Int=      0 D2E=      0 Chk=      9 Scr=      1
 Normal termination of Gaussian 16 at Thu Mar 27 17:21:57 2025.
