 Entering Gaussian System, Link 0=g16
 Input=IM5_tsopt_R.com
 Output=IM5_tsopt_R.log
 Initial command:
 /home/apps/g16_C02_zen2/g16/l1.exe "/dev/shm/Gau-1284719.inp" -scrdir="/dev/shm/"
 Default CPUs for threads: 0,1,2,3,4,5,6,7
 Default is to use a total of   8 processors:
                                8 via shared-memory
                                1 via Linda
 Entering Link 1 = /home/apps/g16_C02_zen2/g16/l1.exe PID=   1284720.
  
 Copyright (c) 1988-2021, Gaussian, Inc.  All Rights Reserved.
  
 This is part of the Gaussian(R) 16 program.  It is based on
 the Gaussian(R) 09 system (copyright 2009, Gaussian, Inc.),
 the Gaussian(R) 03 system (copyright 2003, Gaussian, Inc.),
 the Gaussian(R) 98 system (copyright 1998, Gaussian, Inc.),
 the Gaussian(R) 94 system (copyright 1995, Gaussian, Inc.),
 the Gaussian 92(TM) system (copyright 1992, Gaussian, Inc.),
 the Gaussian 90(TM) system (copyright 1990, Gaussian, Inc.),
 the Gaussian 88(TM) system (copyright 1988, Gaussian, Inc.),
 the Gaussian 86(TM) system (copyright 1986, Carnegie Mellon
 University), and the Gaussian 82(TM) system (copyright 1983,
 Carnegie Mellon University). Gaussian is a federally registered
 trademark of Gaussian, Inc.
  
 This software contains proprietary and confidential information,
 including trade secrets, belonging to Gaussian, Inc.
  
 This software is provided under written license and may be
 used, copied, transmitted, or stored only in accord with that
 written license.
  
 The following legend is applicable only to US Government
 contracts under FAR:
  
                    RESTRICTED RIGHTS LEGEND
  
 Use, reproduction and disclosure by the US Government is
 subject to restrictions as set forth in subparagraphs (a)
 and (c) of the Commercial Computer Software - Restricted
 Rights clause in FAR 52.227-19.
  
 Gaussian, Inc.
 340 Quinnipiac St., Bldg. 40, Wallingford CT 06492
  
  
 ---------------------------------------------------------------
 Warning -- This program may not be used in any manner that
 competes with the business of Gaussian, Inc. or will provide
 assistance to any competitor of Gaussian, Inc.  The licensee
 of this program is prohibited from giving any competitor of
 Gaussian, Inc. access to this program.  By using this program,
 the user acknowledges that Gaussian, Inc. is engaged in the
 business of creating and licensing software in the field of
 computational chemistry and represents and warrants to the
 licensee that it is not a competitor of Gaussian, Inc. and that
 it will not use this program in any manner prohibited above.
 ---------------------------------------------------------------
  

 Cite this work as:
 Gaussian 16, Revision C.02,
 M. J. Frisch, G. W. Trucks, H. B. Schlegel, G. E. Scuseria, 
 M. A. Robb, J. R. Cheeseman, G. Scalmani, V. Barone, 
 G. A. Petersson, H. Nakatsuji, X. Li, M. Caricato, A. V. Marenich, 
 J. Bloino, B. G. Janesko, R. Gomperts, B. Mennucci, H. P. Hratchian, 
 J. V. Ortiz, A. F. Izmaylov, J. L. Sonnenberg, D. Williams-Young, 
 F. Ding, F. Lipparini, F. Egidi, J. Goings, B. Peng, A. Petrone, 
 T. Henderson, D. Ranasinghe, V. G. Zakrzewski, J. Gao, N. Rega, 
 G. Zheng, W. Liang, M. Hada, M. Ehara, K. Toyota, R. Fukuda, 
 J. Hasegawa, M. Ishida, T. Nakajima, Y. Honda, O. Kitao, H. Nakai, 
 T. Vreven, K. Throssell, J. A. Montgomery, Jr., J. E. Peralta, 
 F. Ogliaro, M. J. Bearpark, J. J. Heyd, E. N. Brothers, K. N. Kudin, 
 V. N. Staroverov, T. A. Keith, R. Kobayashi, J. Normand, 
 K. Raghavachari, A. P. Rendell, J. C. Burant, S. S. Iyengar, 
 J. Tomasi, M. Cossi, J. M. Millam, M. Klene, C. Adamo, R. Cammi, 
 J. W. Ochterski, R. L. Martin, K. Morokuma, O. Farkas, 
 J. B. Foresman, and D. J. Fox, Gaussian, Inc., Wallingford CT, 2019.
 
 ******************************************
 Gaussian 16:  AS64L-G16RevC.02  7-Dec-2021
                27-Mar-2025 
 ******************************************
 %nosave
 %chk=IM5_tsopt_R.chk
 SetSPE:  set environment variable "OMP_PROC_BIND" = "true"
 SetSPE:  set environment variable "OMP_PLACES" = "{0},{1},{2},{3},{4},{5},{6},{7}"
 ----------------------------------------------------------------------
 #p PM7 irc=(lqa,reverse,rcfc,noeig,maxcyc=30,maxpoints=30,stepsize=15)
  geom=check guess=read IOp(2/15=3) IOp(2/12=3)
 ----------------------------------------------------------------------
 1/6=30,10=5,11=1,18=10,22=2,26=1,29=2,38=1,39=15,42=30,44=3,45=2,172=1/1,23;
 2/12=3,15=3,29=1,40=1/2;
 3/5=2,14=-4,25=1,41=4200000,71=2,116=-2,140=1/1,2,3;
 4/5=1,35=1/1;
 5/5=2,35=1,38=6/2;
 8/6=4,10=90,11=11/1;
 11/6=1,8=1,9=11,15=111,16=1/1,2,10;
 10/6=1,13=1/2;
 6/7=2,8=2,9=2,10=2,28=1/1;
 7/10=1,25=1/1,2,3,16;
 1/6=30,11=1,18=10,22=2,26=1,39=15,42=30,44=3,45=2/23(2);
 2/12=3,15=3,29=1/2;
 99/5=20/99;
 2/12=3,15=3,29=1/2;
 3/5=2,14=-2,25=1,41=4200000,71=2,135=20,140=1/1,2,3;
 4/5=5,16=3,35=1/1;
 5/5=2,35=1,38=5/2;
 8/6=4,10=90,11=11/1;
 11/6=1,8=1,9=11,15=111,16=1/1,2,10;
 10/6=1,13=1/2;
 7/10=1,25=1/1,2,3,16;
 1/6=30,11=1,18=10,22=2,26=1,39=15,42=30,44=3,45=2/23(-8);
 2/12=3,15=3,29=1/2;
 6/7=2,8=2,9=2,10=2,19=2,28=1/1;
 99/5=20,9=1/99;
 Leave Link    1 at Thu Mar 27 17:18:23 2025, MaxMem=           0 cpu:               0.0 elap:               0.0
 (Enter /home/apps/g16_C02_zen2/g16/l101.exe)
 -----
 title
 -----
 Structure from the checkpoint file:  "IM5_tsopt_R.chk"
 Charge =  1 Multiplicity = 1
 Redundant internal coordinates found in file.  (old form).
 C,0,-0.4260507518,-1.5972031184,0.1716510982
 C,0,-1.8417080466,-0.9833741028,-0.0046683778
 C,0,-2.0338036542,0.2711499635,0.8752012521
 C,0,0.7409380189,-0.7018582322,0.3199025716
 C,0,-1.5744548165,1.5316808604,0.1924928389
 C,0,0.8883421861,0.6975170969,0.1740537036
 C,0,-0.1090689884,1.7139429836,-0.201249265
 H,0,-0.4488376801,-2.3143709643,1.0305716084
 H,0,-1.565161083,0.1292006588,1.8651210372
 H,0,-0.2460940065,-2.271255321,-0.7101305082
 H,0,-3.1197334297,0.3821169453,1.117137282
 H,0,-2.3275216912,1.9111015415,-0.5204301943
 H,0,0.5591597004,0.1407887795,1.4902448449
 C,0,2.3445280895,1.087809417,0.2237549393
 H,0,2.5395728847,1.9595102351,0.8796291632
 H,0,2.686593835,1.4200385413,-0.784484149
 C,0,3.0943154422,-0.1766857203,0.6737760152
 H,0,4.0376942332,-0.3119118719,0.109554392
 H,0,3.406946114,-0.1089619307,1.7321138325
 C,0,2.1204421179,-1.3581273727,0.4487350737
 H,0,2.1517106481,-2.0640359349,1.3138031172
 C,0,2.4501763907,-2.1215228443,-0.8294172765
 H,0,3.4829345238,-2.5074539187,-0.8026071142
 H,0,1.8029631517,-2.9966189027,-0.975596869
 H,0,2.3708041862,-1.4932592627,-1.7261256829
 C,0,-0.7291790075,2.547696474,0.9123318436
 H,0,-0.9032675503,3.6138891723,0.7401623354
 H,0,-0.4398255139,2.4035903699,1.9484820443
 C,0,-2.0812777736,-0.6782349151,-1.4864721159
 H,0,-1.3059750073,-0.0340449635,-1.9125408786
 H,0,-2.110558445,-1.5951751775,-2.0904025827
 H,0,-3.046636202,-0.1762003832,-1.6404949381
 C,0,-2.8581956201,-2.0465606013,0.4461962273
 H,0,-2.7955950915,-2.2570067618,1.5196128199
 H,0,-3.8890238838,-1.7227216477,0.2421015792
 H,0,-2.7234836965,-2.9957864522,-0.0874366392
 C,0,0.2113030111,2.3722463189,-1.5179368088
 H,0,1.0773208655,3.0470155341,-1.4438839791
 H,0,0.4177159841,1.6398479746,-2.3111688276
 H,0,-0.6276134438,2.9904725335,-1.8804044126
 Recover connectivity data from disk.
 ITRead=  0  0  0  0  0  0  0  0  0  0  0  0  0  0  0  0  0  0  0  0
 ITRead=  0  0  0  0  0  0  0  0  0  0  0  0  0  0  0  0  0  0  0  0
 MicOpt= -1 -1 -1 -1 -1 -1 -1 -1 -1 -1 -1 -1 -1 -1 -1 -1 -1 -1 -1 -1
 MicOpt= -1 -1 -1 -1 -1 -1 -1 -1 -1 -1 -1 -1 -1 -1 -1 -1 -1 -1 -1 -1
 NAtoms=     40 NQM=       40 NQMF=       0 NMMI=      0 NMMIF=      0
                NMic=       0 NMicF=      0.
                    Isotopes and Nuclear Properties:
 (Nuclear quadrupole moments (NQMom) in fm**2, nuclear magnetic moments (NMagM)
  in nuclear magnetons)

  Atom         1           2           3           4           5           6           7           8           9          10
 IAtWgt=          12          12          12          12          12          12          12           1           1           1
 AtmWgt=  12.0000000  12.0000000  12.0000000  12.0000000  12.0000000  12.0000000  12.0000000   1.0078250   1.0078250   1.0078250
 NucSpn=           0           0           0           0           0           0           0           1           1           1
 AtZEff=   3.9000000   3.9000000   3.9000000   3.9000000   3.9000000   3.9000000   3.9000000   1.0000000   1.0000000   1.0000000
 NQMom=    0.0000000   0.0000000   0.0000000   0.0000000   0.0000000   0.0000000   0.0000000   0.0000000   0.0000000   0.0000000
 NMagM=    0.0000000   0.0000000   0.0000000   0.0000000   0.0000000   0.0000000   0.0000000   2.7928460   2.7928460   2.7928460
 AtZNuc=   6.0000000   6.0000000   6.0000000   6.0000000   6.0000000   6.0000000   6.0000000   1.0000000   1.0000000   1.0000000

  Atom        11          12          13          14          15          16          17          18          19          20
 IAtWgt=           1           1           1          12           1           1          12           1           1          12
 AtmWgt=   1.0078250   1.0078250   1.0078250  12.0000000   1.0078250   1.0078250  12.0000000   1.0078250   1.0078250  12.0000000
 NucSpn=           1           1           1           0           1           1           0           1           1           0
 AtZEff=   1.0000000   1.0000000   1.0000000   3.9000000   1.0000000   1.0000000   3.9000000   1.0000000   1.0000000   3.9000000
 NQMom=    0.0000000   0.0000000   0.0000000   0.0000000   0.0000000   0.0000000   0.0000000   0.0000000   0.0000000   0.0000000
 NMagM=    2.7928460   2.7928460   2.7928460   0.0000000   2.7928460   2.7928460   0.0000000   2.7928460   2.7928460   0.0000000
 AtZNuc=   1.0000000   1.0000000   1.0000000   6.0000000   1.0000000   1.0000000   6.0000000   1.0000000   1.0000000   6.0000000

  Atom        21          22          23          24          25          26          27          28          29          30
 IAtWgt=           1          12           1           1           1          12           1           1          12           1
 AtmWgt=   1.0078250  12.0000000   1.0078250   1.0078250   1.0078250  12.0000000   1.0078250   1.0078250  12.0000000   1.0078250
 NucSpn=           1           0           1           1           1           0           1           1           0           1
 AtZEff=   1.0000000   3.9000000   1.0000000   1.0000000   1.0000000   3.9000000   1.0000000   1.0000000   3.9000000   1.0000000
 NQMom=    0.0000000   0.0000000   0.0000000   0.0000000   0.0000000   0.0000000   0.0000000   0.0000000   0.0000000   0.0000000
 NMagM=    2.7928460   0.0000000   2.7928460   2.7928460   2.7928460   0.0000000   2.7928460   2.7928460   0.0000000   2.7928460
 AtZNuc=   1.0000000   6.0000000   1.0000000   1.0000000   1.0000000   6.0000000   1.0000000   1.0000000   6.0000000   1.0000000

  Atom        31          32          33          34          35          36          37          38          39          40
 IAtWgt=           1           1          12           1           1           1          12           1           1           1
 AtmWgt=   1.0078250   1.0078250  12.0000000   1.0078250   1.0078250   1.0078250  12.0000000   1.0078250   1.0078250   1.0078250
 NucSpn=           1           1           0           1           1           1           0           1           1           1
 AtZEff=   1.0000000   1.0000000   3.9000000   1.0000000   1.0000000   1.0000000   3.9000000   1.0000000   1.0000000   1.0000000
 NQMom=    0.0000000   0.0000000   0.0000000   0.0000000   0.0000000   0.0000000   0.0000000   0.0000000   0.0000000   0.0000000
 NMagM=    2.7928460   2.7928460   0.0000000   2.7928460   2.7928460   2.7928460   0.0000000   2.7928460   2.7928460   2.7928460
 AtZNuc=   1.0000000   1.0000000   6.0000000   1.0000000   1.0000000   1.0000000   6.0000000   1.0000000   1.0000000   1.0000000
 Leave Link  101 at Thu Mar 27 17:18:24 2025, MaxMem=  8053063680 cpu:               0.1 elap:               0.1
 (Enter /home/apps/g16_C02_zen2/g16/l123.exe)
 IRC-IRC-IRC-IRC-IRC-IRC-IRC-IRC-IRC-IRC-IRC-IRC-IRC-IRC-IRC-IRC-IRC-IRC
 ------------------------------------------------------------------------
 INPUT DATA FOR L123
 ------------------------------------------------------------------------
 GENERAL PARAMETERS:
 Rxn path following direction = Reverse
 Maximum points per path      =  30
 Step size                    =   0.150 bohr
 Integration scheme           = LQA                                 
 Initial Hessian              = ReadFC from chk
 Hessian evaluation           = All updating
 Hessian updating method      = Bofill                              
 ------------------------------------------------------------------------
          ******** Start new reaction path calculation ********
 RCFC Option Requested - Data Read From Chk File:
 "IM5_tsopt_R.chk"
   Energy From Chk =      0.2754984

 Current Structure is TS -> form Hessian eigenvectors.
                            Recovering Hessian eigenvectors from chk file.
 Supplied step size of   0.1500 bohr.
    Integration on MW PES will use step size of   0.1858 sqrt(amu)*bohr.
 Point Number:   0          Path Number:   1
 Calculating another point on the path.
 Point Number  1 in REVERSE path direction.
 Using LQA Reaction Path Following.
 IRC-IRC-IRC-IRC-IRC-IRC-IRC-IRC-IRC-IRC-IRC-IRC-IRC-IRC-IRC-IRC-IRC-IRC
 Leave Link  123 at Thu Mar 27 17:18:24 2025, MaxMem=  8053063680 cpu:               0.0 elap:               0.0
 (Enter /home/apps/g16_C02_zen2/g16/l202.exe)
                          Input orientation:                          
 ---------------------------------------------------------------------
 Center     Atomic      Atomic             Coordinates (Angstroms)
 Number     Number       Type             X           Y           Z
 ---------------------------------------------------------------------
      1          6           0       -0.431832   -1.613063    0.163855
      2          6           0       -1.848465   -1.000048   -0.013662
      3          6           0       -2.040258    0.254244    0.866121
      4          6           0        0.736010   -0.723872    0.299760
      5          6           0       -1.580887    1.514764    0.183145
      6          6           0        0.878997    0.678305    0.176403
      7          6           0       -0.115825    1.697333   -0.211144
      8          1           0       -0.454926   -2.330822    1.022872
      9          1           0       -1.571600    0.112670    1.856047
     10          1           0       -0.254188   -2.290908   -0.717743
     11          1           0       -3.126141    0.365471    1.108196
     12          1           0       -2.334265    1.894503   -0.528989
     13          1           0        0.560439    0.200338    1.473396
     14          6           0        2.338818    1.070948    0.214122
     15          1           0        2.533710    1.942038    0.870233
     16          1           0        2.677425    1.401741   -0.794238
     17          6           0        3.087807   -0.193712    0.664749
     18          1           0        4.031211   -0.328899    0.100539
     19          1           0        3.400505   -0.125958    1.723077
     20          6           0        2.113638   -1.374798    0.440266
     21          1           0        2.144801   -2.080749    1.305447
     22          6           0        2.443535   -2.138597   -0.838525
     23          1           0        3.476863   -2.523737   -0.811254
     24          1           0        1.797382   -3.014303   -0.984947
     25          1           0        2.365455   -1.509880   -1.735379
     26          6           0       -0.735611    2.531081    0.902956
     27          1           0       -0.910488    3.596953    0.731148
     28          1           0       -0.446455    2.387302    1.939026
     29          6           0       -2.087574   -0.695318   -1.495487
     30          1           0       -1.312688   -0.050224   -1.921447
     31          1           0       -2.117264   -1.611893   -2.099753
     32          1           0       -3.052920   -0.192842   -1.649444
     33          6           0       -2.864487   -2.063541    0.437143
     34          1           0       -2.802405   -2.273810    1.510648
     35          1           0       -3.895453   -1.739520    0.233101
     36          1           0       -2.730381   -3.012745   -0.096547
     37          6           0        0.204538    2.355227   -1.527008
     38          1           0        1.071187    3.029185   -1.452433
     39          1           0        0.412078    1.622616   -2.319473
     40          1           0       -0.633540    2.973899   -1.889920
 ---------------------------------------------------------------------
                    Distance matrix (angstroms):
                    1          2          3          4          5
     1  C    0.000000
     2  C    1.553754   0.000000
     3  C    2.562625   1.544037   0.000000
     4  C    1.474105   2.618018   2.997522   0.000000
     5  C    3.332267   2.536654   1.505453   3.223833   0.000000
     6  C    2.639848   3.208122   3.029454   1.414836   2.598218
     7  C    3.346521   3.211994   2.635612   2.617036   1.528136
     8  H    1.119652   2.187993   3.036513   2.126853   4.094076
     9  H    2.672216   2.193309   1.104372   2.906354   2.182786
    10  H    1.126164   2.168818   3.489480   2.114570   4.129754
    11  H    3.473569   2.180748   1.118085   4.093464   2.136447
    12  H    4.049975   2.979930   2.173297   4.119381   1.104045
    13  H    2.447024   3.074913   2.671201   1.504131   2.824489
    14  C    3.857842   4.676992   4.502046   2.407843   3.944872
    15  H    4.683177   5.351691   4.875433   3.265615   4.193394
    16  H    4.435590   5.182815   5.131284   3.079635   4.370500
    17  C    3.827965   5.047495   5.151531   2.438286   4.994751
    18  H    4.644549   5.918959   6.147269   3.324762   5.907755
    19  H    4.396528   5.597498   5.520945   3.079426   5.466043
    20  C    2.571496   4.005590   4.482185   1.530132   4.697360
    21  H    2.856746   4.342135   4.812475   2.199366   5.297926
    22  C    3.090095   4.516410   5.360588   2.492545   5.530536
    23  H    4.130140   5.596151   6.400733   3.462100   6.548217
    24  H    2.872737   4.277011   5.370041   2.832501   5.769713
    25  H    3.382684   4.580542   5.412046   2.722993   5.329429
    26  C    4.220483   3.814119   2.624395   3.622738   1.505164
    27  H    5.262622   4.750469   3.531048   4.643982   2.255050
    28  H    4.376570   4.153645   2.870762   3.710097   2.265254
    29  C    2.517370   1.531613   2.545800   3.346095   2.821170
    30  H    2.750792   2.197468   2.896998   3.095921   2.636367
    31  H    2.822163   2.190521   3.504968   3.832417   3.908364
    32  H    3.489295   2.185881   2.748351   4.293877   2.905372
    33  C    2.489062   1.538358   2.497099   3.844108   3.810042
    34  H    2.805362   2.203632   2.717966   4.048325   4.196149
    35  H    3.466620   2.190404   2.795989   4.741986   3.993755
    36  H    2.703747   2.198998   3.475085   4.172753   4.679520
    37  C    4.360195   4.214606   3.896191   3.619446   2.611272
    38  H    5.140225   5.179686   4.770438   4.155474   3.464402
    39  H    4.165180   4.159951   4.246694   3.531476   3.201037
    40  H    5.029801   4.559457   4.119605   4.510419   2.706315
                    6          7          8          9         10
     6  C    0.000000
     7  C    1.475900   0.000000
     8  H    3.398632   4.226560   0.000000
     9  H    3.024330   2.983910   2.812791   0.000000
    10  H    3.301489   4.022667   1.752606   3.759941   0.000000
    11  H    4.123983   3.546339   3.796402   1.743499   4.317235
    12  H    3.507388   2.249750   4.877864   3.073269   4.677607
    13  H    1.418493   2.352871   2.764183   2.167879   3.416287
    14  C    1.512173   2.568751   4.475614   4.348055   4.346738
    15  H    2.194652   2.872158   5.216567   4.601303   5.311485
    16  H    2.167913   2.868731   5.200532   5.171066   4.715492
    17  C    2.424405   3.821845   4.152884   4.819039   4.180724
    18  H    3.310086   4.626086   4.998381   5.887978   4.783692
    19  H    3.065459   4.407968   4.496227   4.979604   4.899121
    20  C    2.410227   3.851341   2.801951   4.218765   2.790491
    21  H    3.238731   4.656649   2.626968   4.350389   3.145252
    22  C    3.378283   4.653847   3.450046   5.333876   2.704717
    23  H    4.239981   5.575389   4.342832   6.289047   3.739478
    24  H    3.978381   5.143797   3.093764   5.403633   2.191721
    25  H    3.263835   4.332003   4.029446   5.570584   2.916868
    26  C    2.562736   1.523316   4.871474   2.730562   5.109796
    27  H    3.468213   2.264500   5.952407   3.720577   6.098928
    28  H    2.790041   2.282237   4.806256   2.539053   5.383404
    29  C    3.671866   3.355906   3.417973   3.485950   2.551881
    30  H    3.120130   2.722420   3.821766   3.789859   2.754993
    31  H    4.404937   4.303902   3.609849   4.349738   2.417036
    32  H    4.421831   3.777300   4.296720   3.817868   3.619785
    33  C    4.647513   4.703147   2.494094   2.901851   2.863410
    34  H    4.903867   5.094335   2.398298   2.707298   3.385178
    35  H    5.352052   5.127855   3.579190   3.385979   3.803543
    36  H    5.169716   5.388308   2.625988   3.863109   2.653010
    37  C    2.483661   1.505640   5.375484   4.430438   4.738344
    38  H    2.866476   2.173390   6.098018   5.141636   5.531707
    39  H    2.709084   2.174699   5.249060   4.863115   4.280785
    40  H    3.439072   2.171621   6.054447   4.806127   5.407042
                   11         12         13         14         15
    11  H    0.000000
    12  H    2.376001   0.000000
    13  H    3.708304   3.906283   0.000000
    14  C    5.582369   4.802932   2.346565   0.000000
    15  H    5.880145   5.065300   2.700207   1.107819   0.000000
    16  H    6.194715   5.042837   3.326734   1.113942   1.755858
    17  C    6.254797   5.931654   2.682681   1.537340   2.216004
    18  H    7.261213   6.771936   3.769760   2.199243   2.827030
    19  H    6.573940   6.483953   2.869631   2.199252   2.399017
    20  C    5.561470   5.604607   2.441483   2.466480   3.370865
    21  H    5.814269   6.263370   2.782403   3.340932   4.064908
    22  C    6.409475   6.260118   3.789677   3.379381   4.424881
    23  H    7.458651   7.305458   4.598449   3.907467   4.864163
    24  H    6.328128   6.432323   4.231714   4.291876   5.343144
    25  H    6.462235   5.927273   4.059454   3.234491   4.328193
    26  C    3.232124   2.238614   2.727180   3.472549   3.322123
    27  H    3.936212   2.552141   3.775122   4.148012   3.823687
    28  H    3.458150   3.146073   2.452235   3.530697   3.197179
    29  C    2.997175   2.775274   4.077799   5.063141   5.823104
    30  H    3.555300   2.600870   3.885402   4.376206   5.153384
    31  H    3.901120   3.848272   4.818887   5.692830   6.563749
    32  H    2.814543   2.475661   4.791982   5.843020   6.489755
    33  C    2.533550   4.108608   4.234276   6.078581   6.735931
    34  H    2.689344   4.664129   4.175107   6.269016   6.830639
    35  H    2.405955   4.027929   5.015611   6.838510   7.435989
    36  H    3.608375   4.942165   4.859848   6.516889   7.293503
    37  C    4.690080   2.766555   3.711150   3.039087   3.367867
    38  H    5.591937   3.706394   4.101672   2.866877   2.952226
    39  H    5.084125   3.289705   4.053485   3.230443   3.844161
    40  H    4.691019   2.430987   4.519970   4.108908   4.326044
                   16         17         18         19         20
    16  H    0.000000
    17  C    2.200574   0.000000
    18  H    2.372442   1.107529   0.000000
    19  H    3.032092   1.105635   1.752600   0.000000
    20  C    3.090473   1.547373   2.210522   2.204820   0.000000
    21  H    4.101232   2.204691   2.842415   2.360596   1.117084
    22  C    3.548332   2.541161   2.584098   3.395337   1.525623
    23  H    4.006091   2.785491   2.440487   3.489700   2.178243
    24  H    4.506916   3.513179   3.657822   4.271526   2.195273
    25  H    3.075810   2.831025   2.745915   3.866197   2.194331
    26  C    3.975511   4.701039   5.616579   4.983965   4.856768
    27  H    4.474245   5.509983   6.342742   5.781751   5.826513
    28  H    4.266225   4.558116   5.550430   4.600240   4.791007
    29  C    5.253058   5.630524   6.334121   6.387670   4.675362
    30  H    4.393154   5.106208   5.720432   5.958395   4.367137
    31  H    5.811660   6.061887   6.655156   6.875158   4.940490
    32  H    6.009237   6.562318   7.298347   7.281831   5.697124
    33  C    6.651110   6.243227   7.118493   6.682663   5.025545
    34  H    6.989328   6.303725   7.243576   6.567685   5.110912
    35  H    7.357015   7.165317   8.052293   7.619358   6.023712
    36  H    7.015613   6.509826   7.277431   7.016575   5.141552
    37  C    2.749774   4.428784   4.949431   5.189752   4.629029
    38  H    2.379453   4.351584   4.738164   5.046238   4.905515
    39  H    2.739876   4.400472   4.771058   5.322632   4.415422
    40  H    3.825532   5.514392   6.052298   6.239903   5.646939
                   21         22         23         24         25
    21  H    0.000000
    22  C    2.165457   0.000000
    23  H    2.539892   1.103106   0.000000
    24  H    2.497625   1.098095   1.758260   0.000000
    25  H    3.101806   1.098057   1.765543   1.774583   0.000000
    26  C    5.452316   5.911482   6.799605   6.382125   5.736444
    27  H    6.473090   6.827142   7.687046   7.347533   6.549450
    28  H    5.203797   6.045708   6.861104   6.539247   6.049472
    29  C    5.260955   4.800583   5.896969   4.553156   4.533269
    30  H    5.146854   4.432068   5.503689   4.397196   3.961559
    31  H    5.475437   4.761197   5.812568   4.305113   4.498660
    32  H    6.269918   5.886813   6.983817   5.650454   5.576806
    33  C    5.084016   5.459676   6.479429   4.965815   5.690227
    34  H    4.955222   5.749503   6.699470   5.285298   6.150371
    35  H    6.144187   6.441305   7.487103   5.959621   6.567086
    36  H    5.157674   5.299440   6.267361   4.614098   5.559849
    37  C    5.609394   5.067699   5.918167   5.626974   4.433061
    38  H    5.905080   5.382026   6.085502   6.104888   4.728456
    39  H    5.464182   4.524019   5.372138   5.020064   3.737563
    40  H    6.593862   6.058997   6.948592   6.525866   5.396492
                   26         27         28         29         30
    26  C    0.000000
    27  H    1.093701   0.000000
    28  H    1.085230   1.771313   0.000000
    29  C    4.241460   4.976648   4.898132   0.000000
    30  H    3.869549   4.527685   4.647058   1.094549   0.000000
    31  H    5.299949   6.049990   5.924263   1.098239   1.765770
    32  H    4.393680   4.961832   5.131074   1.099126   1.767126
    33  C    5.085238   5.995477   5.283232   2.492125   3.467632
    34  H    5.265729   6.217139   5.240226   3.469793   4.352341
    35  H    5.354562   6.134819   5.642378   2.710498   3.763837
    36  H    5.975961   6.905446   6.206479   2.782211   3.757212
    37  C    2.611423   2.807923   3.526784   3.815835   2.871194
    38  H    3.010064   3.002902   3.770575   4.883805   3.922448
    39  H    3.539287   3.866972   4.410967   3.507141   2.435496
    40  H    2.829605   2.708301   3.878134   3.966478   3.099606
                   31         32         33         34         35
    31  H    0.000000
    32  H    1.758390   0.000000
    33  C    2.682941   2.808713   0.000000
    34  H    3.733973   3.792014   1.095665   0.000000
    35  H    2.936061   2.577993   1.099779   1.764185   0.000000
    36  H    2.520146   3.235332   1.097177   1.770392   1.757032
    37  C    4.632153   4.137473   5.727331   6.300558   6.055977
    38  H    5.667878   5.237225   6.707898   7.204604   7.088659
    39  H    4.111921   3.968758   5.650006   6.339154   6.031121
    40  H    4.824412   3.992428   5.980649   6.618632   6.112578
                   36         37         38         39         40
    36  H    0.000000
    37  C    6.282920   0.000000
    38  H    7.266035   1.100391   0.000000
    39  H    6.025199   1.098996   1.778937   0.000000
    40  H    6.591877   1.103103   1.760836   1.761760   0.000000
 Symmetry turned off by external request.
 Stoichiometry    C15H25
 Rotational constants (GHZ):           0.7707244           0.5737739           0.4043949
 Leave Link  202 at Thu Mar 27 17:18:24 2025, MaxMem=  8053063680 cpu:               0.0 elap:               0.0
 (Enter /home/apps/g16_C02_zen2/g16/l301.exe)
 Standard basis: VSTO-6G (5D, 7F)
 Ernie: Thresh=  0.10000D-02 Tol=  0.10000D-05 Strict=F.
 EHB=         0.000000000 Number of Hydrogen Bond terms=           0
  NNHCO=     0 NNPyr=     0 NCTC=     0               EPep=         0.000000000
    EC=       541.272919856  ECS=         6.752021588   EG=         1.378930062
   EHC=         0.000917993  EAt=       -73.943797150  AtH=         6.160703796
 EPDDG=         0.000000000  ECC=       549.404789499 EAtT=        80.104500946
  EHyb=         0.000000000
    85 basis functions,   510 primitive gaussians,    85 cartesian basis functions
    42 alpha electrons       42 beta electrons
       nuclear repulsion energy       629.5092904449 Hartrees.
 IExCor=    0 DFT=F Ex=HF Corr=None ExCW=0 ScaHFX=  1.000000
 ScaDFX=  1.000000  1.000000  1.000000  1.000000 ScalE2=  1.000000  1.000000
 IRadAn=      5 IRanWt=     -1 IRanGd=            0 ICorTp=0 IEmpDi=251
 Integral buffers will be    131072 words long.
 Regular integral format.
 Two-electron integral symmetry is turned off.
 R6Disp:  PM7 Dispersion energy=       -0.0121210999 Hartrees.
 Nuclear repulsion after empirical dispersion term =      629.4971693450 Hartrees.
 Leave Link  301 at Thu Mar 27 17:18:24 2025, MaxMem=  8053063680 cpu:               0.0 elap:               0.0
 (Enter /home/apps/g16_C02_zen2/g16/l302.exe)
 Do NDO integrals.
 NPDir=0 NMtPBC=     1 NCelOv=     1 NCel=       1 NClECP=     1 NCelD=      1
         NCelK=      1 NCelE2=     1 NClLst=     1 CellRange=     0.0.
 One-electron integrals computed using PRISM.
 NBasis=    85 RedAO= F EigKep=  0.00D+00  NBF=    85
 NBsUse=    85 1.00D-04 EigRej=  0.00D+00 NBFU=    85
 Leave Link  302 at Thu Mar 27 17:18:24 2025, MaxMem=  8053063680 cpu:               0.1 elap:               0.0
 (Enter /home/apps/g16_C02_zen2/g16/l303.exe)
 DipDrv:  MaxL=1.
 Leave Link  303 at Thu Mar 27 17:18:24 2025, MaxMem=  8053063680 cpu:               0.0 elap:               0.0
 (Enter /home/apps/g16_C02_zen2/g16/l401.exe)
 Initial guess from the checkpoint file:  "IM5_tsopt_R.chk"
 B after Tr=    -0.009551   -0.029017   -0.025498
         Rot=   -0.005675    0.002504    0.999961   -0.006220 Ang= 180.65 deg.
 Guess basis will be translated and rotated to current coordinates.
 JPrj=0 DoOrth=T DoCkMO=T.
 Leave Link  401 at Thu Mar 27 17:18:24 2025, MaxMem=  8053063680 cpu:               0.1 elap:               0.0
 (Enter /home/apps/g16_C02_zen2/g16/l502.exe)
 Keep J ints in memory in canonical form, NReq=876540.
 FoFCou: FMM=F IPFlag=           0 FMFlag=           0 FMFlg1=           0
         NFxFlg=           0 DoJE=F BraDBF=F KetDBF=F FulRan=T
         wScrn=  0.000000 ICntrl=       600 IOpCl=  2 I1Cent=           0 NGrid=           0
         NMat0=    1 NMatS0=    175 NMatT0=    0 NMatD0=    1 NMtDS0=    0 NMtDT0=    0
 Symmetry not used in FoFCou.
 Two-electron integral symmetry not used.
 Closed shell SCF:
 Using DIIS extrapolation, IDIIS=  1040.
 Overlap will be assumed to be unity.
 NGot=  8053063680 LenX=  8052971523 LenY=  8052963857
 Requested convergence on RMS density matrix=1.00D-08 within 128 cycles.
 Requested convergence on MAX density matrix=1.00D-06.
 Requested convergence on             energy=1.00D-06.
 No special actions if energy rises.

 Cycle   1  Pass 1  IDiag  1:
 E= 0.276971691701306    
 DIIS: error= 3.74D-03 at cycle   1 NSaved=   1.
 NSaved= 1 IEnMin= 1 EnMin= 0.276971691701306     IErMin= 1 ErrMin= 3.74D-03
 ErrMax= 3.74D-03  0.00D+00 EMaxC= 1.00D-01 BMatC= 3.21D-04 BMatP= 3.21D-04
 IDIUse=3 WtCom= 9.63D-01 WtEn= 3.74D-02
 Coeff-Com:  0.100D+01
 Coeff-En:   0.100D+01
 Coeff:      0.100D+01
 GapD=    2.000 DampG=2.000 DampE=1.000 DampFc=2.0000 IDamp=-1.
 RMSDP=5.01D-04 MaxDP=1.43D-02              OVMax= 0.00D+00

 Cycle   2  Pass 1  IDiag  3:
 E= 0.275511953279988     Delta-E=       -0.001459738421 Rises=F Damp=F
 DIIS: error= 1.73D-03 at cycle   2 NSaved=   2.
 NSaved= 2 IEnMin= 2 EnMin= 0.275511953279988     IErMin= 2 ErrMin= 1.73D-03
 ErrMax= 1.73D-03  0.00D+00 EMaxC= 1.00D-01 BMatC= 6.78D-05 BMatP= 3.21D-04
 IDIUse=3 WtCom= 9.83D-01 WtEn= 1.73D-02
 Coeff-Com: -0.483D+00 0.148D+01
 Coeff-En:   0.000D+00 0.100D+01
 Coeff:     -0.474D+00 0.147D+01
 Gap=     0.340 Goal=   None    Shift=    0.000
 RMSDP=3.75D-04 MaxDP=1.04D-02 DE=-1.46D-03 OVMax= 7.80D-03

 Cycle   3  Pass 1  IDiag  3:
 E= 0.275026121769997     Delta-E=       -0.000485831510 Rises=F Damp=F
 DIIS: error= 7.18D-04 at cycle   3 NSaved=   3.
 NSaved= 3 IEnMin= 3 EnMin= 0.275026121769997     IErMin= 3 ErrMin= 7.18D-04
 ErrMax= 7.18D-04  0.00D+00 EMaxC= 1.00D-01 BMatC= 1.09D-05 BMatP= 6.78D-05
 IDIUse=3 WtCom= 9.93D-01 WtEn= 7.18D-03
 Coeff-Com:  0.232D+00-0.978D+00 0.175D+01
 Coeff-En:   0.000D+00 0.000D+00 0.100D+01
 Coeff:      0.230D+00-0.971D+00 0.174D+01
 Gap=     0.340 Goal=   None    Shift=    0.000
 RMSDP=2.22D-04 MaxDP=6.58D-03 DE=-4.86D-04 OVMax= 5.10D-03

 Cycle   4  Pass 1  IDiag  3:
 E= 0.274919613410816     Delta-E=       -0.000106508359 Rises=F Damp=F
 DIIS: error= 1.95D-04 at cycle   4 NSaved=   4.
 NSaved= 4 IEnMin= 4 EnMin= 0.274919613410816     IErMin= 4 ErrMin= 1.95D-04
 ErrMax= 1.95D-04  0.00D+00 EMaxC= 1.00D-01 BMatC= 1.15D-06 BMatP= 1.09D-05
 IDIUse=3 WtCom= 9.98D-01 WtEn= 1.95D-03
 Coeff-Com: -0.203D-01 0.182D+00-0.734D+00 0.157D+01
 Coeff-En:   0.000D+00 0.000D+00 0.000D+00 0.100D+01
 Coeff:     -0.202D-01 0.182D+00-0.732D+00 0.157D+01
 Gap=     0.340 Goal=   None    Shift=    0.000
 RMSDP=8.46D-05 MaxDP=2.46D-03 DE=-1.07D-04 OVMax= 2.08D-03

 Cycle   5  Pass 1  IDiag  3:
 E= 0.274908382276863     Delta-E=       -0.000011231134 Rises=F Damp=F
 DIIS: error= 2.37D-05 at cycle   5 NSaved=   5.
 NSaved= 5 IEnMin= 5 EnMin= 0.274908382276863     IErMin= 5 ErrMin= 2.37D-05
 ErrMax= 2.37D-05  0.00D+00 EMaxC= 1.00D-01 BMatC= 7.39D-08 BMatP= 1.15D-06
 IDIUse=1 WtCom= 1.00D+00 WtEn= 0.00D+00
 Coeff-Com:  0.221D-02-0.393D-01 0.219D+00-0.637D+00 0.145D+01
 Coeff:      0.221D-02-0.393D-01 0.219D+00-0.637D+00 0.145D+01
 Gap=     0.340 Goal=   None    Shift=    0.000
 RMSDP=1.45D-05 MaxDP=3.40D-04 DE=-1.12D-05 OVMax= 3.13D-04

 Cycle   6  Pass 1  IDiag  3:
 E= 0.274907848569001     Delta-E=       -0.000000533708 Rises=F Damp=F
 DIIS: error= 1.15D-05 at cycle   6 NSaved=   6.
 NSaved= 6 IEnMin= 6 EnMin= 0.274907848569001     IErMin= 6 ErrMin= 1.15D-05
 ErrMax= 1.15D-05  0.00D+00 EMaxC= 1.00D-01 BMatC= 8.76D-09 BMatP= 7.39D-08
 IDIUse=1 WtCom= 1.00D+00 WtEn= 0.00D+00
 Coeff-Com: -0.146D-02 0.147D-01-0.716D-01 0.215D+00-0.751D+00 0.159D+01
 Coeff:     -0.146D-02 0.147D-01-0.716D-01 0.215D+00-0.751D+00 0.159D+01
 Gap=     0.340 Goal=   None    Shift=    0.000
 RMSDP=5.27D-06 MaxDP=8.00D-05 DE=-5.34D-07 OVMax= 1.10D-04

 Cycle   7  Pass 1  IDiag  3:
 E= 0.274907781015258     Delta-E=       -0.000000067554 Rises=F Damp=F
 DIIS: error= 3.21D-06 at cycle   7 NSaved=   7.
 NSaved= 7 IEnMin= 7 EnMin= 0.274907781015258     IErMin= 7 ErrMin= 3.21D-06
 ErrMax= 3.21D-06  0.00D+00 EMaxC= 1.00D-01 BMatC= 6.20D-10 BMatP= 8.76D-09
 IDIUse=1 WtCom= 1.00D+00 WtEn= 0.00D+00
 Coeff-Com:  0.627D-03-0.578D-02 0.261D-01-0.759D-01 0.270D+00-0.777D+00
 Coeff-Com:  0.156D+01
 Coeff:      0.627D-03-0.578D-02 0.261D-01-0.759D-01 0.270D+00-0.777D+00
 Coeff:      0.156D+01
 Gap=     0.340 Goal=   None    Shift=    0.000
 RMSDP=1.51D-06 MaxDP=2.53D-05 DE=-6.76D-08 OVMax= 3.10D-05

 Cycle   8  Pass 1  IDiag  3:
 E= 0.274907776231089     Delta-E=       -0.000000004784 Rises=F Damp=F
 DIIS: error= 6.74D-07 at cycle   8 NSaved=   8.
 NSaved= 8 IEnMin= 8 EnMin= 0.274907776231089     IErMin= 8 ErrMin= 6.74D-07
 ErrMax= 6.74D-07  0.00D+00 EMaxC= 1.00D-01 BMatC= 3.38D-11 BMatP= 6.20D-10
 IDIUse=1 WtCom= 1.00D+00 WtEn= 0.00D+00
 Coeff-Com: -0.213D-03 0.204D-02-0.933D-02 0.268D-01-0.934D-01 0.285D+00
 Coeff-Com: -0.716D+00 0.150D+01
 Coeff:     -0.213D-03 0.204D-02-0.933D-02 0.268D-01-0.934D-01 0.285D+00
 Coeff:     -0.716D+00 0.150D+01
 Gap=     0.340 Goal=   None    Shift=    0.000
 RMSDP=2.82D-07 MaxDP=4.51D-06 DE=-4.78D-09 OVMax= 6.15D-06

 Cycle   9  Pass 1  IDiag  3:
 E= 0.274907776008376     Delta-E=       -0.000000000223 Rises=F Damp=F
 DIIS: error= 1.75D-07 at cycle   9 NSaved=   9.
 NSaved= 9 IEnMin= 9 EnMin= 0.274907776008376     IErMin= 9 ErrMin= 1.75D-07
 ErrMax= 1.75D-07  0.00D+00 EMaxC= 1.00D-01 BMatC= 2.52D-12 BMatP= 3.38D-11
 IDIUse=1 WtCom= 1.00D+00 WtEn= 0.00D+00
 Coeff-Com:  0.580D-04-0.566D-03 0.263D-02-0.763D-02 0.267D-01-0.821D-01
 Coeff-Com:  0.216D+00-0.646D+00 0.149D+01
 Coeff:      0.580D-04-0.566D-03 0.263D-02-0.763D-02 0.267D-01-0.821D-01
 Coeff:      0.216D+00-0.646D+00 0.149D+01
 Gap=     0.340 Goal=   None    Shift=    0.000
 RMSDP=7.67D-08 MaxDP=1.36D-06 DE=-2.23D-10 OVMax= 1.61D-06

 Cycle  10  Pass 1  IDiag  3:
 E= 0.274907775989277     Delta-E=       -0.000000000019 Rises=F Damp=F
 DIIS: error= 4.71D-08 at cycle  10 NSaved=  10.
 NSaved=10 IEnMin=10 EnMin= 0.274907775989277     IErMin=10 ErrMin= 4.71D-08
 ErrMax= 4.71D-08  0.00D+00 EMaxC= 1.00D-01 BMatC= 1.73D-13 BMatP= 2.52D-12
 IDIUse=1 WtCom= 1.00D+00 WtEn= 0.00D+00
 Coeff-Com: -0.233D-04 0.214D-03-0.975D-03 0.283D-02-0.990D-02 0.302D-01
 Coeff-Com: -0.783D-01 0.243D+00-0.733D+00 0.155D+01
 Coeff:     -0.233D-04 0.214D-03-0.975D-03 0.283D-02-0.990D-02 0.302D-01
 Coeff:     -0.783D-01 0.243D+00-0.733D+00 0.155D+01
 Gap=     0.340 Goal=   None    Shift=    0.000
 RMSDP=2.13D-08 MaxDP=4.06D-07 DE=-1.91D-11 OVMax= 4.04D-07

 Cycle  11  Pass 1  IDiag  3:
 E= 0.274907775996667     Delta-E=        0.000000000007 Rises=F Damp=F
 DIIS: error= 1.25D-08 at cycle  11 NSaved=  11.
 NSaved=11 IEnMin=10 EnMin= 0.274907775989277     IErMin=11 ErrMin= 1.25D-08
 ErrMax= 1.25D-08  0.00D+00 EMaxC= 1.00D-01 BMatC= 1.23D-14 BMatP= 1.73D-13
 IDIUse=1 WtCom= 1.00D+00 WtEn= 0.00D+00
 Coeff-Com:  0.805D-05-0.816D-04 0.385D-03-0.112D-02 0.392D-02-0.119D-01
 Coeff-Com:  0.305D-01-0.926D-01 0.293D+00-0.794D+00 0.157D+01
 Coeff:      0.805D-05-0.816D-04 0.385D-03-0.112D-02 0.392D-02-0.119D-01
 Coeff:      0.305D-01-0.926D-01 0.293D+00-0.794D+00 0.157D+01
 Gap=     0.340 Goal=   None    Shift=    0.000
 RMSDP=6.01D-09 MaxDP=1.14D-07 DE= 7.39D-12 OVMax= 1.45D-07

 Cycle  12  Pass 2  IDiag  1:
 SCF Done:  E(RPM7) =  0.274907775997     A.U. after   12 cycles
            NFock= 11  Conv=0.60D-08     -V/T= 1.0022
 KE=-1.266465724132D+02 PE=-1.066969237339D+03 EE= 5.643935481836D+02
 Leave Link  502 at Thu Mar 27 17:18:24 2025, MaxMem=  8053063680 cpu:               0.2 elap:               0.0
 (Enter /home/apps/g16_C02_zen2/g16/l801.exe)
 Range of M.O.s used for correlation:     1    85
 NBasis=    85 NAE=    42 NBE=    42 NFC=     0 NFV=     0
 NROrb=     85 NOA=    42 NOB=    42 NVA=    43 NVB=    43
 Leave Link  801 at Thu Mar 27 17:18:24 2025, MaxMem=  8053063680 cpu:               0.0 elap:               0.0
 (Enter /home/apps/g16_C02_zen2/g16/l1101.exe)
 Leave Link 1101 at Thu Mar 27 17:18:24 2025, MaxMem=  8053063680 cpu:               0.0 elap:               0.0
 (Enter /home/apps/g16_C02_zen2/g16/l1102.exe)
 Symmetrizing basis deriv contribution to polar:
 IMax=3 JMax=2 DiffMx= 0.00D+00
 Leave Link 1102 at Thu Mar 27 17:18:24 2025, MaxMem=  8053063680 cpu:               0.0 elap:               0.0
 (Enter /home/apps/g16_C02_zen2/g16/l1110.exe)
 Leave Link 1110 at Thu Mar 27 17:18:24 2025, MaxMem=  8053063680 cpu:               0.0 elap:               0.0
 (Enter /home/apps/g16_C02_zen2/g16/l1002.exe)
 Minotr:  Closed shell wavefunction.
 Leave Link 1002 at Thu Mar 27 17:18:24 2025, MaxMem=  8053063680 cpu:               0.0 elap:               0.0
 (Enter /home/apps/g16_C02_zen2/g16/l601.exe)
 Copying SCF densities to generalized density rwf, IOpCl= 0 IROHF=0.

 **********************************************************************

            Population analysis using the SCF Density.

 **********************************************************************

 Alpha  occ. eigenvalues --   -1.35332  -1.27441  -1.22591  -1.13275  -1.11739
 Alpha  occ. eigenvalues --   -1.08042  -1.01580  -1.00355  -0.99712  -0.97393
 Alpha  occ. eigenvalues --   -0.90569  -0.87356  -0.86297  -0.81430  -0.78124
 Alpha  occ. eigenvalues --   -0.77747  -0.74516  -0.73916  -0.71915  -0.69400
 Alpha  occ. eigenvalues --   -0.68830  -0.67694  -0.66248  -0.65757  -0.65027
 Alpha  occ. eigenvalues --   -0.64599  -0.63590  -0.62433  -0.62030  -0.61356
 Alpha  occ. eigenvalues --   -0.61005  -0.59709  -0.59357  -0.59006  -0.58360
 Alpha  occ. eigenvalues --   -0.58210  -0.57158  -0.56274  -0.55756  -0.54883
 Alpha  occ. eigenvalues --   -0.53302  -0.52121
 Alpha virt. eigenvalues --   -0.18191  -0.10805  -0.06394  -0.05844  -0.04037
 Alpha virt. eigenvalues --   -0.03317  -0.02221  -0.01710  -0.00885  -0.00077
 Alpha virt. eigenvalues --    0.00169   0.00439   0.01058   0.01431   0.01798
 Alpha virt. eigenvalues --    0.02405   0.02929   0.03744   0.04442   0.04662
 Alpha virt. eigenvalues --    0.05031   0.05627   0.06835   0.07004   0.07358
 Alpha virt. eigenvalues --    0.07720   0.07775   0.08034   0.08086   0.08295
 Alpha virt. eigenvalues --    0.08511   0.09475   0.09643   0.09836   0.10027
 Alpha virt. eigenvalues --    0.10079   0.10193   0.10459   0.10957   0.11935
 Alpha virt. eigenvalues --    0.12609   0.14224   0.14552
          Condensed to atoms (all electrons):
               1          2          3          4          5          6
     1  C    4.383788   0.000000   0.000000   0.000000   0.000000   0.000000
     2  C    0.000000   3.877998   0.000000   0.000000   0.000000   0.000000
     3  C    0.000000   0.000000   4.324867   0.000000   0.000000   0.000000
     4  C    0.000000   0.000000   0.000000   3.844935   0.000000   0.000000
     5  C    0.000000   0.000000   0.000000   0.000000   4.131204   0.000000
     6  C    0.000000   0.000000   0.000000   0.000000   0.000000   3.931677
     7  C    0.000000   0.000000   0.000000   0.000000   0.000000   0.000000
     8  H    0.000000   0.000000   0.000000   0.000000   0.000000   0.000000
     9  H    0.000000   0.000000   0.000000   0.000000   0.000000   0.000000
    10  H    0.000000   0.000000   0.000000   0.000000   0.000000   0.000000
    11  H    0.000000   0.000000   0.000000   0.000000   0.000000   0.000000
    12  H    0.000000   0.000000   0.000000   0.000000   0.000000   0.000000
    13  H    0.000000   0.000000   0.000000   0.000000   0.000000   0.000000
    14  C    0.000000   0.000000   0.000000   0.000000   0.000000   0.000000
    15  H    0.000000   0.000000   0.000000   0.000000   0.000000   0.000000
    16  H    0.000000   0.000000   0.000000   0.000000   0.000000   0.000000
    17  C    0.000000   0.000000   0.000000   0.000000   0.000000   0.000000
    18  H    0.000000   0.000000   0.000000   0.000000   0.000000   0.000000
    19  H    0.000000   0.000000   0.000000   0.000000   0.000000   0.000000
    20  C    0.000000   0.000000   0.000000   0.000000   0.000000   0.000000
    21  H    0.000000   0.000000   0.000000   0.000000   0.000000   0.000000
    22  C    0.000000   0.000000   0.000000   0.000000   0.000000   0.000000
    23  H    0.000000   0.000000   0.000000   0.000000   0.000000   0.000000
    24  H    0.000000   0.000000   0.000000   0.000000   0.000000   0.000000
    25  H    0.000000   0.000000   0.000000   0.000000   0.000000   0.000000
    26  C    0.000000   0.000000   0.000000   0.000000   0.000000   0.000000
    27  H    0.000000   0.000000   0.000000   0.000000   0.000000   0.000000
    28  H    0.000000   0.000000   0.000000   0.000000   0.000000   0.000000
    29  C    0.000000   0.000000   0.000000   0.000000   0.000000   0.000000
    30  H    0.000000   0.000000   0.000000   0.000000   0.000000   0.000000
    31  H    0.000000   0.000000   0.000000   0.000000   0.000000   0.000000
    32  H    0.000000   0.000000   0.000000   0.000000   0.000000   0.000000
    33  C    0.000000   0.000000   0.000000   0.000000   0.000000   0.000000
    34  H    0.000000   0.000000   0.000000   0.000000   0.000000   0.000000
    35  H    0.000000   0.000000   0.000000   0.000000   0.000000   0.000000
    36  H    0.000000   0.000000   0.000000   0.000000   0.000000   0.000000
    37  C    0.000000   0.000000   0.000000   0.000000   0.000000   0.000000
    38  H    0.000000   0.000000   0.000000   0.000000   0.000000   0.000000
    39  H    0.000000   0.000000   0.000000   0.000000   0.000000   0.000000
    40  H    0.000000   0.000000   0.000000   0.000000   0.000000   0.000000
               7          8          9         10         11         12
     1  C    0.000000   0.000000   0.000000   0.000000   0.000000   0.000000
     2  C    0.000000   0.000000   0.000000   0.000000   0.000000   0.000000
     3  C    0.000000   0.000000   0.000000   0.000000   0.000000   0.000000
     4  C    0.000000   0.000000   0.000000   0.000000   0.000000   0.000000
     5  C    0.000000   0.000000   0.000000   0.000000   0.000000   0.000000
     6  C    0.000000   0.000000   0.000000   0.000000   0.000000   0.000000
     7  C    4.077000   0.000000   0.000000   0.000000   0.000000   0.000000
     8  H    0.000000   0.805254   0.000000   0.000000   0.000000   0.000000
     9  H    0.000000   0.000000   0.864481   0.000000   0.000000   0.000000
    10  H    0.000000   0.000000   0.000000   0.783764   0.000000   0.000000
    11  H    0.000000   0.000000   0.000000   0.000000   0.811084   0.000000
    12  H    0.000000   0.000000   0.000000   0.000000   0.000000   0.813164
    13  H    0.000000   0.000000   0.000000   0.000000   0.000000   0.000000
    14  C    0.000000   0.000000   0.000000   0.000000   0.000000   0.000000
    15  H    0.000000   0.000000   0.000000   0.000000   0.000000   0.000000
    16  H    0.000000   0.000000   0.000000   0.000000   0.000000   0.000000
    17  C    0.000000   0.000000   0.000000   0.000000   0.000000   0.000000
    18  H    0.000000   0.000000   0.000000   0.000000   0.000000   0.000000
    19  H    0.000000   0.000000   0.000000   0.000000   0.000000   0.000000
    20  C    0.000000   0.000000   0.000000   0.000000   0.000000   0.000000
    21  H    0.000000   0.000000   0.000000   0.000000   0.000000   0.000000
    22  C    0.000000   0.000000   0.000000   0.000000   0.000000   0.000000
    23  H    0.000000   0.000000   0.000000   0.000000   0.000000   0.000000
    24  H    0.000000   0.000000   0.000000   0.000000   0.000000   0.000000
    25  H    0.000000   0.000000   0.000000   0.000000   0.000000   0.000000
    26  C    0.000000   0.000000   0.000000   0.000000   0.000000   0.000000
    27  H    0.000000   0.000000   0.000000   0.000000   0.000000   0.000000
    28  H    0.000000   0.000000   0.000000   0.000000   0.000000   0.000000
    29  C    0.000000   0.000000   0.000000   0.000000   0.000000   0.000000
    30  H    0.000000   0.000000   0.000000   0.000000   0.000000   0.000000
    31  H    0.000000   0.000000   0.000000   0.000000   0.000000   0.000000
    32  H    0.000000   0.000000   0.000000   0.000000   0.000000   0.000000
    33  C    0.000000   0.000000   0.000000   0.000000   0.000000   0.000000
    34  H    0.000000   0.000000   0.000000   0.000000   0.000000   0.000000
    35  H    0.000000   0.000000   0.000000   0.000000   0.000000   0.000000
    36  H    0.000000   0.000000   0.000000   0.000000   0.000000   0.000000
    37  C    0.000000   0.000000   0.000000   0.000000   0.000000   0.000000
    38  H    0.000000   0.000000   0.000000   0.000000   0.000000   0.000000
    39  H    0.000000   0.000000   0.000000   0.000000   0.000000   0.000000
    40  H    0.000000   0.000000   0.000000   0.000000   0.000000   0.000000
              13         14         15         16         17         18
     1  C    0.000000   0.000000   0.000000   0.000000   0.000000   0.000000
     2  C    0.000000   0.000000   0.000000   0.000000   0.000000   0.000000
     3  C    0.000000   0.000000   0.000000   0.000000   0.000000   0.000000
     4  C    0.000000   0.000000   0.000000   0.000000   0.000000   0.000000
     5  C    0.000000   0.000000   0.000000   0.000000   0.000000   0.000000
     6  C    0.000000   0.000000   0.000000   0.000000   0.000000   0.000000
     7  C    0.000000   0.000000   0.000000   0.000000   0.000000   0.000000
     8  H    0.000000   0.000000   0.000000   0.000000   0.000000   0.000000
     9  H    0.000000   0.000000   0.000000   0.000000   0.000000   0.000000
    10  H    0.000000   0.000000   0.000000   0.000000   0.000000   0.000000
    11  H    0.000000   0.000000   0.000000   0.000000   0.000000   0.000000
    12  H    0.000000   0.000000   0.000000   0.000000   0.000000   0.000000
    13  H    0.742388   0.000000   0.000000   0.000000   0.000000   0.000000
    14  C    0.000000   4.309400   0.000000   0.000000   0.000000   0.000000
    15  H    0.000000   0.000000   0.812401   0.000000   0.000000   0.000000
    16  H    0.000000   0.000000   0.000000   0.800854   0.000000   0.000000
    17  C    0.000000   0.000000   0.000000   0.000000   4.293437   0.000000
    18  H    0.000000   0.000000   0.000000   0.000000   0.000000   0.813612
    19  H    0.000000   0.000000   0.000000   0.000000   0.000000   0.000000
    20  C    0.000000   0.000000   0.000000   0.000000   0.000000   0.000000
    21  H    0.000000   0.000000   0.000000   0.000000   0.000000   0.000000
    22  C    0.000000   0.000000   0.000000   0.000000   0.000000   0.000000
    23  H    0.000000   0.000000   0.000000   0.000000   0.000000   0.000000
    24  H    0.000000   0.000000   0.000000   0.000000   0.000000   0.000000
    25  H    0.000000   0.000000   0.000000   0.000000   0.000000   0.000000
    26  C    0.000000   0.000000   0.000000   0.000000   0.000000   0.000000
    27  H    0.000000   0.000000   0.000000   0.000000   0.000000   0.000000
    28  H    0.000000   0.000000   0.000000   0.000000   0.000000   0.000000
    29  C    0.000000   0.000000   0.000000   0.000000   0.000000   0.000000
    30  H    0.000000   0.000000   0.000000   0.000000   0.000000   0.000000
    31  H    0.000000   0.000000   0.000000   0.000000   0.000000   0.000000
    32  H    0.000000   0.000000   0.000000   0.000000   0.000000   0.000000
    33  C    0.000000   0.000000   0.000000   0.000000   0.000000   0.000000
    34  H    0.000000   0.000000   0.000000   0.000000   0.000000   0.000000
    35  H    0.000000   0.000000   0.000000   0.000000   0.000000   0.000000
    36  H    0.000000   0.000000   0.000000   0.000000   0.000000   0.000000
    37  C    0.000000   0.000000   0.000000   0.000000   0.000000   0.000000
    38  H    0.000000   0.000000   0.000000   0.000000   0.000000   0.000000
    39  H    0.000000   0.000000   0.000000   0.000000   0.000000   0.000000
    40  H    0.000000   0.000000   0.000000   0.000000   0.000000   0.000000
              19         20         21         22         23         24
     1  C    0.000000   0.000000   0.000000   0.000000   0.000000   0.000000
     2  C    0.000000   0.000000   0.000000   0.000000   0.000000   0.000000
     3  C    0.000000   0.000000   0.000000   0.000000   0.000000   0.000000
     4  C    0.000000   0.000000   0.000000   0.000000   0.000000   0.000000
     5  C    0.000000   0.000000   0.000000   0.000000   0.000000   0.000000
     6  C    0.000000   0.000000   0.000000   0.000000   0.000000   0.000000
     7  C    0.000000   0.000000   0.000000   0.000000   0.000000   0.000000
     8  H    0.000000   0.000000   0.000000   0.000000   0.000000   0.000000
     9  H    0.000000   0.000000   0.000000   0.000000   0.000000   0.000000
    10  H    0.000000   0.000000   0.000000   0.000000   0.000000   0.000000
    11  H    0.000000   0.000000   0.000000   0.000000   0.000000   0.000000
    12  H    0.000000   0.000000   0.000000   0.000000   0.000000   0.000000
    13  H    0.000000   0.000000   0.000000   0.000000   0.000000   0.000000
    14  C    0.000000   0.000000   0.000000   0.000000   0.000000   0.000000
    15  H    0.000000   0.000000   0.000000   0.000000   0.000000   0.000000
    16  H    0.000000   0.000000   0.000000   0.000000   0.000000   0.000000
    17  C    0.000000   0.000000   0.000000   0.000000   0.000000   0.000000
    18  H    0.000000   0.000000   0.000000   0.000000   0.000000   0.000000
    19  H    0.834653   0.000000   0.000000   0.000000   0.000000   0.000000
    20  C    0.000000   4.139144   0.000000   0.000000   0.000000   0.000000
    21  H    0.000000   0.000000   0.823254   0.000000   0.000000   0.000000
    22  C    0.000000   0.000000   0.000000   4.440198   0.000000   0.000000
    23  H    0.000000   0.000000   0.000000   0.000000   0.815861   0.000000
    24  H    0.000000   0.000000   0.000000   0.000000   0.000000   0.837453
    25  H    0.000000   0.000000   0.000000   0.000000   0.000000   0.000000
    26  C    0.000000   0.000000   0.000000   0.000000   0.000000   0.000000
    27  H    0.000000   0.000000   0.000000   0.000000   0.000000   0.000000
    28  H    0.000000   0.000000   0.000000   0.000000   0.000000   0.000000
    29  C    0.000000   0.000000   0.000000   0.000000   0.000000   0.000000
    30  H    0.000000   0.000000   0.000000   0.000000   0.000000   0.000000
    31  H    0.000000   0.000000   0.000000   0.000000   0.000000   0.000000
    32  H    0.000000   0.000000   0.000000   0.000000   0.000000   0.000000
    33  C    0.000000   0.000000   0.000000   0.000000   0.000000   0.000000
    34  H    0.000000   0.000000   0.000000   0.000000   0.000000   0.000000
    35  H    0.000000   0.000000   0.000000   0.000000   0.000000   0.000000
    36  H    0.000000   0.000000   0.000000   0.000000   0.000000   0.000000
    37  C    0.000000   0.000000   0.000000   0.000000   0.000000   0.000000
    38  H    0.000000   0.000000   0.000000   0.000000   0.000000   0.000000
    39  H    0.000000   0.000000   0.000000   0.000000   0.000000   0.000000
    40  H    0.000000   0.000000   0.000000   0.000000   0.000000   0.000000
              25         26         27         28         29         30
     1  C    0.000000   0.000000   0.000000   0.000000   0.000000   0.000000
     2  C    0.000000   0.000000   0.000000   0.000000   0.000000   0.000000
     3  C    0.000000   0.000000   0.000000   0.000000   0.000000   0.000000
     4  C    0.000000   0.000000   0.000000   0.000000   0.000000   0.000000
     5  C    0.000000   0.000000   0.000000   0.000000   0.000000   0.000000
     6  C    0.000000   0.000000   0.000000   0.000000   0.000000   0.000000
     7  C    0.000000   0.000000   0.000000   0.000000   0.000000   0.000000
     8  H    0.000000   0.000000   0.000000   0.000000   0.000000   0.000000
     9  H    0.000000   0.000000   0.000000   0.000000   0.000000   0.000000
    10  H    0.000000   0.000000   0.000000   0.000000   0.000000   0.000000
    11  H    0.000000   0.000000   0.000000   0.000000   0.000000   0.000000
    12  H    0.000000   0.000000   0.000000   0.000000   0.000000   0.000000
    13  H    0.000000   0.000000   0.000000   0.000000   0.000000   0.000000
    14  C    0.000000   0.000000   0.000000   0.000000   0.000000   0.000000
    15  H    0.000000   0.000000   0.000000   0.000000   0.000000   0.000000
    16  H    0.000000   0.000000   0.000000   0.000000   0.000000   0.000000
    17  C    0.000000   0.000000   0.000000   0.000000   0.000000   0.000000
    18  H    0.000000   0.000000   0.000000   0.000000   0.000000   0.000000
    19  H    0.000000   0.000000   0.000000   0.000000   0.000000   0.000000
    20  C    0.000000   0.000000   0.000000   0.000000   0.000000   0.000000
    21  H    0.000000   0.000000   0.000000   0.000000   0.000000   0.000000
    22  C    0.000000   0.000000   0.000000   0.000000   0.000000   0.000000
    23  H    0.000000   0.000000   0.000000   0.000000   0.000000   0.000000
    24  H    0.000000   0.000000   0.000000   0.000000   0.000000   0.000000
    25  H    0.836171   0.000000   0.000000   0.000000   0.000000   0.000000
    26  C    0.000000   4.324995   0.000000   0.000000   0.000000   0.000000
    27  H    0.000000   0.000000   0.804930   0.000000   0.000000   0.000000
    28  H    0.000000   0.000000   0.000000   0.837833   0.000000   0.000000
    29  C    0.000000   0.000000   0.000000   0.000000   4.470620   0.000000
    30  H    0.000000   0.000000   0.000000   0.000000   0.000000   0.851678
    31  H    0.000000   0.000000   0.000000   0.000000   0.000000   0.000000
    32  H    0.000000   0.000000   0.000000   0.000000   0.000000   0.000000
    33  C    0.000000   0.000000   0.000000   0.000000   0.000000   0.000000
    34  H    0.000000   0.000000   0.000000   0.000000   0.000000   0.000000
    35  H    0.000000   0.000000   0.000000   0.000000   0.000000   0.000000
    36  H    0.000000   0.000000   0.000000   0.000000   0.000000   0.000000
    37  C    0.000000   0.000000   0.000000   0.000000   0.000000   0.000000
    38  H    0.000000   0.000000   0.000000   0.000000   0.000000   0.000000
    39  H    0.000000   0.000000   0.000000   0.000000   0.000000   0.000000
    40  H    0.000000   0.000000   0.000000   0.000000   0.000000   0.000000
              31         32         33         34         35         36
     1  C    0.000000   0.000000   0.000000   0.000000   0.000000   0.000000
     2  C    0.000000   0.000000   0.000000   0.000000   0.000000   0.000000
     3  C    0.000000   0.000000   0.000000   0.000000   0.000000   0.000000
     4  C    0.000000   0.000000   0.000000   0.000000   0.000000   0.000000
     5  C    0.000000   0.000000   0.000000   0.000000   0.000000   0.000000
     6  C    0.000000   0.000000   0.000000   0.000000   0.000000   0.000000
     7  C    0.000000   0.000000   0.000000   0.000000   0.000000   0.000000
     8  H    0.000000   0.000000   0.000000   0.000000   0.000000   0.000000
     9  H    0.000000   0.000000   0.000000   0.000000   0.000000   0.000000
    10  H    0.000000   0.000000   0.000000   0.000000   0.000000   0.000000
    11  H    0.000000   0.000000   0.000000   0.000000   0.000000   0.000000
    12  H    0.000000   0.000000   0.000000   0.000000   0.000000   0.000000
    13  H    0.000000   0.000000   0.000000   0.000000   0.000000   0.000000
    14  C    0.000000   0.000000   0.000000   0.000000   0.000000   0.000000
    15  H    0.000000   0.000000   0.000000   0.000000   0.000000   0.000000
    16  H    0.000000   0.000000   0.000000   0.000000   0.000000   0.000000
    17  C    0.000000   0.000000   0.000000   0.000000   0.000000   0.000000
    18  H    0.000000   0.000000   0.000000   0.000000   0.000000   0.000000
    19  H    0.000000   0.000000   0.000000   0.000000   0.000000   0.000000
    20  C    0.000000   0.000000   0.000000   0.000000   0.000000   0.000000
    21  H    0.000000   0.000000   0.000000   0.000000   0.000000   0.000000
    22  C    0.000000   0.000000   0.000000   0.000000   0.000000   0.000000
    23  H    0.000000   0.000000   0.000000   0.000000   0.000000   0.000000
    24  H    0.000000   0.000000   0.000000   0.000000   0.000000   0.000000
    25  H    0.000000   0.000000   0.000000   0.000000   0.000000   0.000000
    26  C    0.000000   0.000000   0.000000   0.000000   0.000000   0.000000
    27  H    0.000000   0.000000   0.000000   0.000000   0.000000   0.000000
    28  H    0.000000   0.000000   0.000000   0.000000   0.000000   0.000000
    29  C    0.000000   0.000000   0.000000   0.000000   0.000000   0.000000
    30  H    0.000000   0.000000   0.000000   0.000000   0.000000   0.000000
    31  H    0.837326   0.000000   0.000000   0.000000   0.000000   0.000000
    32  H    0.000000   0.829496   0.000000   0.000000   0.000000   0.000000
    33  C    0.000000   0.000000   4.469616   0.000000   0.000000   0.000000
    34  H    0.000000   0.000000   0.000000   0.845212   0.000000   0.000000
    35  H    0.000000   0.000000   0.000000   0.000000   0.827793   0.000000
    36  H    0.000000   0.000000   0.000000   0.000000   0.000000   0.838021
    37  C    0.000000   0.000000   0.000000   0.000000   0.000000   0.000000
    38  H    0.000000   0.000000   0.000000   0.000000   0.000000   0.000000
    39  H    0.000000   0.000000   0.000000   0.000000   0.000000   0.000000
    40  H    0.000000   0.000000   0.000000   0.000000   0.000000   0.000000
              37         38         39         40
     1  C    0.000000   0.000000   0.000000   0.000000
     2  C    0.000000   0.000000   0.000000   0.000000
     3  C    0.000000   0.000000   0.000000   0.000000
     4  C    0.000000   0.000000   0.000000   0.000000
     5  C    0.000000   0.000000   0.000000   0.000000
     6  C    0.000000   0.000000   0.000000   0.000000
     7  C    0.000000   0.000000   0.000000   0.000000
     8  H    0.000000   0.000000   0.000000   0.000000
     9  H    0.000000   0.000000   0.000000   0.000000
    10  H    0.000000   0.000000   0.000000   0.000000
    11  H    0.000000   0.000000   0.000000   0.000000
    12  H    0.000000   0.000000   0.000000   0.000000
    13  H    0.000000   0.000000   0.000000   0.000000
    14  C    0.000000   0.000000   0.000000   0.000000
    15  H    0.000000   0.000000   0.000000   0.000000
    16  H    0.000000   0.000000   0.000000   0.000000
    17  C    0.000000   0.000000   0.000000   0.000000
    18  H    0.000000   0.000000   0.000000   0.000000
    19  H    0.000000   0.000000   0.000000   0.000000
    20  C    0.000000   0.000000   0.000000   0.000000
    21  H    0.000000   0.000000   0.000000   0.000000
    22  C    0.000000   0.000000   0.000000   0.000000
    23  H    0.000000   0.000000   0.000000   0.000000
    24  H    0.000000   0.000000   0.000000   0.000000
    25  H    0.000000   0.000000   0.000000   0.000000
    26  C    0.000000   0.000000   0.000000   0.000000
    27  H    0.000000   0.000000   0.000000   0.000000
    28  H    0.000000   0.000000   0.000000   0.000000
    29  C    0.000000   0.000000   0.000000   0.000000
    30  H    0.000000   0.000000   0.000000   0.000000
    31  H    0.000000   0.000000   0.000000   0.000000
    32  H    0.000000   0.000000   0.000000   0.000000
    33  C    0.000000   0.000000   0.000000   0.000000
    34  H    0.000000   0.000000   0.000000   0.000000
    35  H    0.000000   0.000000   0.000000   0.000000
    36  H    0.000000   0.000000   0.000000   0.000000
    37  C    4.426114   0.000000   0.000000   0.000000
    38  H    0.000000   0.830600   0.000000   0.000000
    39  H    0.000000   0.000000   0.838817   0.000000
    40  H    0.000000   0.000000   0.000000   0.818909
 Mulliken charges:
               1
     1  C   -0.383788
     2  C    0.122002
     3  C   -0.324867
     4  C    0.155065
     5  C   -0.131204
     6  C    0.068323
     7  C   -0.077000
     8  H    0.194746
     9  H    0.135519
    10  H    0.216236
    11  H    0.188916
    12  H    0.186836
    13  H    0.257612
    14  C   -0.309400
    15  H    0.187599
    16  H    0.199146
    17  C   -0.293437
    18  H    0.186388
    19  H    0.165347
    20  C   -0.139144
    21  H    0.176746
    22  C   -0.440198
    23  H    0.184139
    24  H    0.162547
    25  H    0.163829
    26  C   -0.324995
    27  H    0.195070
    28  H    0.162167
    29  C   -0.470620
    30  H    0.148322
    31  H    0.162674
    32  H    0.170504
    33  C   -0.469616
    34  H    0.154788
    35  H    0.172207
    36  H    0.161979
    37  C   -0.426114
    38  H    0.169400
    39  H    0.161183
    40  H    0.181091
 Sum of Mulliken charges =   1.00000
 Mulliken charges with hydrogens summed into heavy atoms:
               1
     1  C    0.027194
     2  C    0.122002
     3  C   -0.000431
     4  C    0.155065
     5  C    0.055631
     6  C    0.325935
     7  C   -0.077000
    14  C    0.077346
    17  C    0.058297
    20  C    0.037603
    22  C    0.070317
    26  C    0.032242
    29  C    0.010880
    33  C    0.019358
    37  C    0.085559
 Charge=              1.0000 electrons
 Dipole moment (field-independent basis, Debye):
    X=              2.7065    Y=             -0.7535    Z=              1.5867  Tot=              3.2265
 N-N= 6.294971693450D+02 E-N=-1.066969237342D+03  KE=-1.266465724132D+02
  Exact polarizability:       0.000       0.000       0.000       0.000       0.000       0.000
 Approx polarizability:      71.448       2.266      82.091      -2.296       1.436      66.630
 Leave Link  601 at Thu Mar 27 17:18:24 2025, MaxMem=  8053063680 cpu:               0.0 elap:               0.0
 (Enter /home/apps/g16_C02_zen2/g16/l701.exe)
 ... and contract with generalized density number  0.
 Compute integral first derivatives.
 R6Disp: Adding PM7 dispersion energy 1st derivatives to the gradient.
 Leave Link  701 at Thu Mar 27 17:18:24 2025, MaxMem=  8053063680 cpu:               0.1 elap:               0.0
 (Enter /home/apps/g16_C02_zen2/g16/l702.exe)
 L702 exits ... SP integral derivatives will be done elsewhere.
 Leave Link  702 at Thu Mar 27 17:18:24 2025, MaxMem=  8053063680 cpu:               0.0 elap:               0.0
 (Enter /home/apps/g16_C02_zen2/g16/l703.exe)
 Integral derivatives from FoFJK, PRISM(SPDF).
 Compute integral first derivatives, UseDBF=F ICtDFT=           0.
 Calling FoFJK, ICntrl=      2127 FMM=F ISym2X=0 I1Cent= 0 IOpClX= 0 NMat=1 NMatS=1 NMatT=0.
 FoFJK:  IHMeth=43 ICntrl=    2127 DoSepK=F KAlg= 0 I1Cent=           0 FoldK=F
 IRaf=         0 NMat=       1 IRICut=       1 DoRegI=T DoRafI=F ISym2E= 0 IDoP0=3 IntGTp=3.
 FoFCou: FMM=F IPFlag=           0 FMFlag=      100000 FMFlg1=         800
         NFxFlg=           0 DoJE=F BraDBF=F KetDBF=F FulRan=T
         wScrn=  0.000000 ICntrl=      2127 IOpCl=  0 I1Cent=           0 NGrid=           0
         NMat0=    1 NMatS0=      1 NMatT0=    0 NMatD0=    1 NMtDS0=    0 NMtDT0=    0
 Symmetry not used in FoFCou.
 Leave Link  703 at Thu Mar 27 17:18:24 2025, MaxMem=  8053063680 cpu:               0.1 elap:               0.0
 (Enter /home/apps/g16_C02_zen2/g16/l716.exe)
 Dipole        = 1.06481236D+00-2.96466900D-01 6.24250731D-01
 Polarizability= 0.00000000D+00 0.00000000D+00 0.00000000D+00
                 0.00000000D+00 0.00000000D+00 0.00000000D+00
 -------------------------------------------------------------------
 Center     Atomic                   Forces (Hartrees/Bohr)
 Number     Number              X              Y              Z
 -------------------------------------------------------------------
      1        6           0.000575918    0.000780415    0.000776901
      2        6          -0.000219617    0.000182563    0.000068915
      3        6          -0.000003076   -0.000012791   -0.000013131
      4        6           0.001127395   -0.004558266   -0.008186397
      5        6           0.000023761   -0.000020809   -0.000215297
      6        6          -0.002140282   -0.001079027    0.009020462
      7        6          -0.000164706    0.000181546   -0.000820216
      8        1           0.000034109    0.000014394    0.000089745
      9        1           0.000007782    0.000022655   -0.000007928
     10        1          -0.000115347   -0.000207245    0.000094454
     11        1           0.000009195    0.000016035    0.000005850
     12        1          -0.000014600    0.000019026    0.000034345
     13        1           0.000583674    0.004900951   -0.000385017
     14        6           0.000554688   -0.000035845   -0.000571379
     15        1           0.000040606   -0.000026344   -0.000026171
     16        1          -0.000158882   -0.000084752   -0.000048766
     17        6           0.000010553   -0.000113546    0.000018464
     18        1          -0.000002527   -0.000006838    0.000005852
     19        1          -0.000008063   -0.000005637    0.000006279
     20        6          -0.000282114    0.000182569    0.000353477
     21        1          -0.000031657    0.000012620    0.000046707
     22        6          -0.000116894   -0.000146858   -0.000061549
     23        1           0.000031702    0.000039130    0.000027705
     24        1           0.000061765   -0.000055412   -0.000016137
     25        1           0.000082508    0.000012478   -0.000013477
     26        6           0.000000217    0.000255439   -0.000247322
     27        1          -0.000044924   -0.000003486   -0.000000397
     28        1          -0.000005999    0.000035106   -0.000013538
     29        6           0.000165026   -0.000157003    0.000034126
     30        1          -0.000020439    0.000047506    0.000011934
     31        1          -0.000017091    0.000011112   -0.000019174
     32        1           0.000012594    0.000016838    0.000008525
     33        6           0.000157422   -0.000078687    0.000005545
     34        1          -0.000021031    0.000007511    0.000007473
     35        1           0.000004500    0.000006755    0.000005639
     36        1          -0.000027956   -0.000003867   -0.000001832
     37        6          -0.000193469   -0.000097762   -0.000022326
     38        1           0.000021650   -0.000056312    0.000032825
     39        1           0.000050918   -0.000017072    0.000045445
     40        1           0.000032692    0.000022911   -0.000030616
 -------------------------------------------------------------------
 Cartesian Forces:  Max     0.009020462 RMS     0.001305247
 Leave Link  716 at Thu Mar 27 17:18:24 2025, MaxMem=  8053063680 cpu:               0.0 elap:               0.0
 (Enter /home/apps/g16_C02_zen2/g16/l123.exe)
 IRC-IRC-IRC-IRC-IRC-IRC-IRC-IRC-IRC-IRC-IRC-IRC-IRC-IRC-IRC-IRC-IRC-IRC
 Pt  1 Step number   1 out of a maximum of  30
 Point Number:   1          Path Number:   1
                    CURRENT STRUCTURE
                Cartesian Coordinates (Ang):                
 ---------------------------------------------------------------------
 Center     Atomic                     Coordinates (Angstroms)
 Number     Number                        X           Y           Z
 ---------------------------------------------------------------------
      1          6                   -0.431832   -1.613063    0.163855
      2          6                   -1.848465   -1.000048   -0.013662
      3          6                   -2.040258    0.254244    0.866121
      4          6                    0.736010   -0.723872    0.299760
      5          6                   -1.580887    1.514764    0.183145
      6          6                    0.878997    0.678305    0.176403
      7          6                   -0.115825    1.697333   -0.211144
      8          1                   -0.454926   -2.330822    1.022872
      9          1                   -1.571600    0.112670    1.856047
     10          1                   -0.254188   -2.290908   -0.717743
     11          1                   -3.126141    0.365471    1.108196
     12          1                   -2.334265    1.894503   -0.528989
     13          1                    0.560439    0.200338    1.473396
     14          6                    2.338818    1.070948    0.214122
     15          1                    2.533710    1.942038    0.870233
     16          1                    2.677425    1.401741   -0.794238
     17          6                    3.087807   -0.193712    0.664749
     18          1                    4.031211   -0.328899    0.100539
     19          1                    3.400505   -0.125958    1.723077
     20          6                    2.113638   -1.374798    0.440266
     21          1                    2.144801   -2.080749    1.305447
     22          6                    2.443535   -2.138597   -0.838525
     23          1                    3.476863   -2.523737   -0.811254
     24          1                    1.797382   -3.014303   -0.984947
     25          1                    2.365455   -1.509880   -1.735379
     26          6                   -0.735611    2.531081    0.902956
     27          1                   -0.910488    3.596953    0.731148
     28          1                   -0.446455    2.387302    1.939026
     29          6                   -2.087574   -0.695318   -1.495487
     30          1                   -1.312688   -0.050224   -1.921447
     31          1                   -2.117264   -1.611893   -2.099753
     32          1                   -3.052920   -0.192842   -1.649444
     33          6                   -2.864487   -2.063541    0.437143
     34          1                   -2.802405   -2.273810    1.510648
     35          1                   -3.895453   -1.739520    0.233101
     36          1                   -2.730381   -3.012745   -0.096547
     37          6                    0.204538    2.355227   -1.527008
     38          1                    1.071187    3.029185   -1.452433
     39          1                    0.412078    1.622616   -2.319473
     40          1                   -0.633540    2.973899   -1.889920
 ---------------------------------------------------------------------
   CHANGE IN THE REACTION COORDINATE =    0.18576
   NET REACTION COORDINATE UP TO THIS POINT =    0.18576
  # OF POINTS ALONG THE PATH =   1
  # OF STEPS =   1

 Calculating another point on the path.
 Point Number  2 in REVERSE path direction.
 Using LQA Reaction Path Following.
   LQA: T_Est iteration completed in    3 iterations.
 IRC-IRC-IRC-IRC-IRC-IRC-IRC-IRC-IRC-IRC-IRC-IRC-IRC-IRC-IRC-IRC-IRC-IRC
 Leave Link  123 at Thu Mar 27 17:18:24 2025, MaxMem=  8053063680 cpu:               0.1 elap:               0.0
 (Enter /home/apps/g16_C02_zen2/g16/l202.exe)
                          Input orientation:                          
 ---------------------------------------------------------------------
 Center     Atomic      Atomic             Coordinates (Angstroms)
 Number     Number       Type             X           Y           Z
 ---------------------------------------------------------------------
      1          6           0       -0.431106   -1.612059    0.164929
      2          6           0       -1.848750   -0.999808   -0.013582
      3          6           0       -2.040264    0.254231    0.866091
      4          6           0        0.737528   -0.729381    0.289038
      5          6           0       -1.580846    1.514733    0.182855
      6          6           0        0.876178    0.676455    0.188184
      7          6           0       -0.116082    1.697586   -0.212128
      8          1           0       -0.454541   -2.330551    1.024078
      9          1           0       -1.571521    0.113016    1.855968
     10          1           0       -0.255942   -2.293947   -0.716319
     11          1           0       -3.126062    0.365720    1.108301
     12          1           0       -2.334519    1.894783   -0.528488
     13          1           0        0.569303    0.276488    1.466390
     14          6           0        2.339570    1.070937    0.213412
     15          1           0        2.534461    1.941537    0.869722
     16          1           0        2.674879    1.400331   -0.795010
     17          6           0        3.087819   -0.193870    0.664763
     18          1           0        4.031266   -0.329025    0.100628
     19          1           0        3.400451   -0.126070    1.723131
     20          6           0        2.113309   -1.374588    0.440763
     21          1           0        2.144499   -2.080598    1.306117
     22          6           0        2.443425   -2.138807   -0.838601
     23          1           0        3.477354   -2.523123   -0.810808
     24          1           0        1.798401   -3.015178   -0.985223
     25          1           0        2.366754   -1.509680   -1.735619
     26          6           0       -0.735610    2.531397    0.902614
     27          1           0       -0.911213    3.596932    0.731147
     28          1           0       -0.446573    2.387912    1.938623
     29          6           0       -2.087380   -0.695501   -1.495429
     30          1           0       -1.312982   -0.049450   -1.921255
     31          1           0       -2.117569   -1.611719   -2.100034
     32          1           0       -3.052725   -0.192590   -1.649297
     33          6           0       -2.864306   -2.063648    0.437152
     34          1           0       -2.802766   -2.273726    1.510752
     35          1           0       -3.895398   -1.739421    0.233177
     36          1           0       -2.730843   -3.012832   -0.096585
     37          6           0        0.204265    2.355115   -1.527044
     38          1           0        1.071510    3.028341   -1.451938
     39          1           0        0.412868    1.622356   -2.318795
     40          1           0       -0.633004    2.974254   -1.890377
 ---------------------------------------------------------------------
                    Distance matrix (angstroms):
                    1          2          3          4          5
     1  C    0.000000
     2  C    1.554488   0.000000
     3  C    2.562041   1.543734   0.000000
     4  C    1.469772   2.617928   3.002767   0.000000
     5  C    3.331523   2.536390   1.505569   3.228340   0.000000
     6  C    2.635683   3.205588   3.023816   1.416252   2.596093
     7  C    3.345917   3.212085   2.635964   2.621066   1.528064
     8  H    1.120230   2.188934   3.036540   2.127218   4.094194
     9  H    2.671337   2.193273   1.104318   2.914895   2.182705
    10  H    1.127942   2.169257   3.490135   2.108458   4.131577
    11  H    3.473377   2.180553   1.118057   4.098507   2.136439
    12  H    4.049908   2.979892   2.173212   4.122143   1.103844
    13  H    2.502244   3.109056   2.677815   1.557635   2.793537
    14  C    3.857131   4.677770   4.502881   2.411099   3.945573
    15  H    4.681812   5.352034   4.875974   3.271080   4.194007
    16  H    4.432056   5.180204   5.128876   3.076388   4.368123
    17  C    3.826738   5.047713   5.151559   2.439633   4.994796
    18  H    4.643606   5.919256   6.147324   3.323326   5.907792
    19  H    4.395109   5.597652   5.520917   3.084115   5.466078
    20  C    2.570316   4.005597   4.481755   1.527117   4.696964
    21  H    2.855797   4.342321   4.812202   2.199955   5.297765
    22  C    3.089897   4.516719   5.360604   2.483574   5.530505
    23  H    4.130152   5.596735   6.400765   3.454536   6.548055
    24  H    2.874420   4.278728   5.371382   2.823838   5.770944
    25  H    3.383871   4.582124   5.413140   2.713389   5.330212
    26  C    4.219613   3.814171   2.624679   3.630328   1.505351
    27  H    5.261624   4.750117   3.530809   4.650891   2.254903
    28  H    4.375614   4.153775   2.871022   3.720314   2.265334
    29  C    2.517958   1.531476   2.545779   3.341494   2.821055
    30  H    2.751657   2.197600   2.896629   3.090678   2.635470
    31  H    2.823866   2.190886   3.505088   3.825934   3.908242
    32  H    3.489871   2.185571   2.748073   4.290840   2.904851
    33  C    2.489679   1.538268   2.497117   3.843880   3.810084
    34  H    2.806031   2.203771   2.718007   4.051082   4.196286
    35  H    3.467304   2.190133   2.795846   4.742078   3.993645
    36  H    2.705429   2.199373   3.475247   4.170426   4.679681
    37  C    4.359465   4.214374   3.895987   3.618928   2.610865
    38  H    5.138621   5.179071   4.769914   4.154879   3.463893
    39  H    4.164446   4.159887   4.246541   3.526593   3.200739
    40  H    5.029842   4.559996   4.120318   4.510556   2.706824
[...]
    27  H    0.000000   0.000000   0.000000   0.000000   0.000000   0.000000
    28  H    0.000000   0.000000   0.000000   0.000000   0.000000   0.000000
    29  C    0.000000   0.000000   0.000000   0.000000   0.000000   0.000000
    30  H    0.000000   0.000000   0.000000   0.000000   0.000000   0.000000
    31  H    0.000000   0.000000   0.000000   0.000000   0.000000   0.000000
    32  H    0.000000   0.000000   0.000000   0.000000   0.000000   0.000000
    33  C    0.000000   0.000000   0.000000   0.000000   0.000000   0.000000
    34  H    0.000000   0.000000   0.000000   0.000000   0.000000   0.000000
    35  H    0.000000   0.000000   0.000000   0.000000   0.000000   0.000000
    36  H    0.000000   0.000000   0.000000   0.000000   0.000000   0.000000
    37  C    0.000000   0.000000   0.000000   0.000000   0.000000   0.000000
    38  H    0.000000   0.000000   0.000000   0.000000   0.000000   0.000000
    39  H    0.000000   0.000000   0.000000   0.000000   0.000000   0.000000
    40  H    0.000000   0.000000   0.000000   0.000000   0.000000   0.000000
              13         14         15         16         17         18
     1  C    0.000000   0.000000   0.000000   0.000000   0.000000   0.000000
     2  C    0.000000   0.000000   0.000000   0.000000   0.000000   0.000000
     3  C    0.000000   0.000000   0.000000   0.000000   0.000000   0.000000
     4  C    0.000000   0.000000   0.000000   0.000000   0.000000   0.000000
     5  C    0.000000   0.000000   0.000000   0.000000   0.000000   0.000000
     6  C    0.000000   0.000000   0.000000   0.000000   0.000000   0.000000
     7  C    0.000000   0.000000   0.000000   0.000000   0.000000   0.000000
     8  H    0.000000   0.000000   0.000000   0.000000   0.000000   0.000000
     9  H    0.000000   0.000000   0.000000   0.000000   0.000000   0.000000
    10  H    0.000000   0.000000   0.000000   0.000000   0.000000   0.000000
    11  H    0.000000   0.000000   0.000000   0.000000   0.000000   0.000000
    12  H    0.000000   0.000000   0.000000   0.000000   0.000000   0.000000
    13  H    0.771622   0.000000   0.000000   0.000000   0.000000   0.000000
    14  C    0.000000   4.267245   0.000000   0.000000   0.000000   0.000000
    15  H    0.000000   0.000000   0.822778   0.000000   0.000000   0.000000
    16  H    0.000000   0.000000   0.000000   0.826721   0.000000   0.000000
    17  C    0.000000   0.000000   0.000000   0.000000   4.280670   0.000000
    18  H    0.000000   0.000000   0.000000   0.000000   0.000000   0.818801
    19  H    0.000000   0.000000   0.000000   0.000000   0.000000   0.000000
    20  C    0.000000   0.000000   0.000000   0.000000   0.000000   0.000000
    21  H    0.000000   0.000000   0.000000   0.000000   0.000000   0.000000
    22  C    0.000000   0.000000   0.000000   0.000000   0.000000   0.000000
    23  H    0.000000   0.000000   0.000000   0.000000   0.000000   0.000000
    24  H    0.000000   0.000000   0.000000   0.000000   0.000000   0.000000
    25  H    0.000000   0.000000   0.000000   0.000000   0.000000   0.000000
    26  C    0.000000   0.000000   0.000000   0.000000   0.000000   0.000000
    27  H    0.000000   0.000000   0.000000   0.000000   0.000000   0.000000
    28  H    0.000000   0.000000   0.000000   0.000000   0.000000   0.000000
    29  C    0.000000   0.000000   0.000000   0.000000   0.000000   0.000000
    30  H    0.000000   0.000000   0.000000   0.000000   0.000000   0.000000
    31  H    0.000000   0.000000   0.000000   0.000000   0.000000   0.000000
    32  H    0.000000   0.000000   0.000000   0.000000   0.000000   0.000000
    33  C    0.000000   0.000000   0.000000   0.000000   0.000000   0.000000
    34  H    0.000000   0.000000   0.000000   0.000000   0.000000   0.000000
    35  H    0.000000   0.000000   0.000000   0.000000   0.000000   0.000000
    36  H    0.000000   0.000000   0.000000   0.000000   0.000000   0.000000
    37  C    0.000000   0.000000   0.000000   0.000000   0.000000   0.000000
    38  H    0.000000   0.000000   0.000000   0.000000   0.000000   0.000000
    39  H    0.000000   0.000000   0.000000   0.000000   0.000000   0.000000
    40  H    0.000000   0.000000   0.000000   0.000000   0.000000   0.000000
              19         20         21         22         23         24
     1  C    0.000000   0.000000   0.000000   0.000000   0.000000   0.000000
     2  C    0.000000   0.000000   0.000000   0.000000   0.000000   0.000000
     3  C    0.000000   0.000000   0.000000   0.000000   0.000000   0.000000
     4  C    0.000000   0.000000   0.000000   0.000000   0.000000   0.000000
     5  C    0.000000   0.000000   0.000000   0.000000   0.000000   0.000000
     6  C    0.000000   0.000000   0.000000   0.000000   0.000000   0.000000
     7  C    0.000000   0.000000   0.000000   0.000000   0.000000   0.000000
     8  H    0.000000   0.000000   0.000000   0.000000   0.000000   0.000000
     9  H    0.000000   0.000000   0.000000   0.000000   0.000000   0.000000
    10  H    0.000000   0.000000   0.000000   0.000000   0.000000   0.000000
    11  H    0.000000   0.000000   0.000000   0.000000   0.000000   0.000000
    12  H    0.000000   0.000000   0.000000   0.000000   0.000000   0.000000
    13  H    0.000000   0.000000   0.000000   0.000000   0.000000   0.000000
    14  C    0.000000   0.000000   0.000000   0.000000   0.000000   0.000000
    15  H    0.000000   0.000000   0.000000   0.000000   0.000000   0.000000
    16  H    0.000000   0.000000   0.000000   0.000000   0.000000   0.000000
    17  C    0.000000   0.000000   0.000000   0.000000   0.000000   0.000000
    18  H    0.000000   0.000000   0.000000   0.000000   0.000000   0.000000
    19  H    0.833899   0.000000   0.000000   0.000000   0.000000   0.000000
    20  C    0.000000   4.214610   0.000000   0.000000   0.000000   0.000000
    21  H    0.000000   0.000000   0.801381   0.000000   0.000000   0.000000
    22  C    0.000000   0.000000   0.000000   4.431393   0.000000   0.000000
    23  H    0.000000   0.000000   0.000000   0.000000   0.808021   0.000000
    24  H    0.000000   0.000000   0.000000   0.000000   0.000000   0.839479
    25  H    0.000000   0.000000   0.000000   0.000000   0.000000   0.000000
    26  C    0.000000   0.000000   0.000000   0.000000   0.000000   0.000000
    27  H    0.000000   0.000000   0.000000   0.000000   0.000000   0.000000
    28  H    0.000000   0.000000   0.000000   0.000000   0.000000   0.000000
    29  C    0.000000   0.000000   0.000000   0.000000   0.000000   0.000000
    30  H    0.000000   0.000000   0.000000   0.000000   0.000000   0.000000
    31  H    0.000000   0.000000   0.000000   0.000000   0.000000   0.000000
    32  H    0.000000   0.000000   0.000000   0.000000   0.000000   0.000000
    33  C    0.000000   0.000000   0.000000   0.000000   0.000000   0.000000
    34  H    0.000000   0.000000   0.000000   0.000000   0.000000   0.000000
    35  H    0.000000   0.000000   0.000000   0.000000   0.000000   0.000000
    36  H    0.000000   0.000000   0.000000   0.000000   0.000000   0.000000
    37  C    0.000000   0.000000   0.000000   0.000000   0.000000   0.000000
    38  H    0.000000   0.000000   0.000000   0.000000   0.000000   0.000000
    39  H    0.000000   0.000000   0.000000   0.000000   0.000000   0.000000
    40  H    0.000000   0.000000   0.000000   0.000000   0.000000   0.000000
              25         26         27         28         29         30
     1  C    0.000000   0.000000   0.000000   0.000000   0.000000   0.000000
     2  C    0.000000   0.000000   0.000000   0.000000   0.000000   0.000000
     3  C    0.000000   0.000000   0.000000   0.000000   0.000000   0.000000
     4  C    0.000000   0.000000   0.000000   0.000000   0.000000   0.000000
     5  C    0.000000   0.000000   0.000000   0.000000   0.000000   0.000000
     6  C    0.000000   0.000000   0.000000   0.000000   0.000000   0.000000
     7  C    0.000000   0.000000   0.000000   0.000000   0.000000   0.000000
     8  H    0.000000   0.000000   0.000000   0.000000   0.000000   0.000000
     9  H    0.000000   0.000000   0.000000   0.000000   0.000000   0.000000
    10  H    0.000000   0.000000   0.000000   0.000000   0.000000   0.000000
    11  H    0.000000   0.000000   0.000000   0.000000   0.000000   0.000000
    12  H    0.000000   0.000000   0.000000   0.000000   0.000000   0.000000
    13  H    0.000000   0.000000   0.000000   0.000000   0.000000   0.000000
    14  C    0.000000   0.000000   0.000000   0.000000   0.000000   0.000000
    15  H    0.000000   0.000000   0.000000   0.000000   0.000000   0.000000
    16  H    0.000000   0.000000   0.000000   0.000000   0.000000   0.000000
    17  C    0.000000   0.000000   0.000000   0.000000   0.000000   0.000000
    18  H    0.000000   0.000000   0.000000   0.000000   0.000000   0.000000
    19  H    0.000000   0.000000   0.000000   0.000000   0.000000   0.000000
    20  C    0.000000   0.000000   0.000000   0.000000   0.000000   0.000000
    21  H    0.000000   0.000000   0.000000   0.000000   0.000000   0.000000
    22  C    0.000000   0.000000   0.000000   0.000000   0.000000   0.000000
    23  H    0.000000   0.000000   0.000000   0.000000   0.000000   0.000000
    24  H    0.000000   0.000000   0.000000   0.000000   0.000000   0.000000
    25  H    0.831366   0.000000   0.000000   0.000000   0.000000   0.000000
    26  C    0.000000   4.325636   0.000000   0.000000   0.000000   0.000000
    27  H    0.000000   0.000000   0.813233   0.000000   0.000000   0.000000
    28  H    0.000000   0.000000   0.000000   0.835409   0.000000   0.000000
    29  C    0.000000   0.000000   0.000000   0.000000   4.474937   0.000000
    30  H    0.000000   0.000000   0.000000   0.000000   0.000000   0.848586
    31  H    0.000000   0.000000   0.000000   0.000000   0.000000   0.000000
    32  H    0.000000   0.000000   0.000000   0.000000   0.000000   0.000000
    33  C    0.000000   0.000000   0.000000   0.000000   0.000000   0.000000
    34  H    0.000000   0.000000   0.000000   0.000000   0.000000   0.000000
    35  H    0.000000   0.000000   0.000000   0.000000   0.000000   0.000000
    36  H    0.000000   0.000000   0.000000   0.000000   0.000000   0.000000
    37  C    0.000000   0.000000   0.000000   0.000000   0.000000   0.000000
    38  H    0.000000   0.000000   0.000000   0.000000   0.000000   0.000000
    39  H    0.000000   0.000000   0.000000   0.000000   0.000000   0.000000
    40  H    0.000000   0.000000   0.000000   0.000000   0.000000   0.000000
              31         32         33         34         35         36
     1  C    0.000000   0.000000   0.000000   0.000000   0.000000   0.000000
     2  C    0.000000   0.000000   0.000000   0.000000   0.000000   0.000000
     3  C    0.000000   0.000000   0.000000   0.000000   0.000000   0.000000
     4  C    0.000000   0.000000   0.000000   0.000000   0.000000   0.000000
     5  C    0.000000   0.000000   0.000000   0.000000   0.000000   0.000000
     6  C    0.000000   0.000000   0.000000   0.000000   0.000000   0.000000
     7  C    0.000000   0.000000   0.000000   0.000000   0.000000   0.000000
     8  H    0.000000   0.000000   0.000000   0.000000   0.000000   0.000000
     9  H    0.000000   0.000000   0.000000   0.000000   0.000000   0.000000
    10  H    0.000000   0.000000   0.000000   0.000000   0.000000   0.000000
    11  H    0.000000   0.000000   0.000000   0.000000   0.000000   0.000000
    12  H    0.000000   0.000000   0.000000   0.000000   0.000000   0.000000
    13  H    0.000000   0.000000   0.000000   0.000000   0.000000   0.000000
    14  C    0.000000   0.000000   0.000000   0.000000   0.000000   0.000000
    15  H    0.000000   0.000000   0.000000   0.000000   0.000000   0.000000
    16  H    0.000000   0.000000   0.000000   0.000000   0.000000   0.000000
    17  C    0.000000   0.000000   0.000000   0.000000   0.000000   0.000000
    18  H    0.000000   0.000000   0.000000   0.000000   0.000000   0.000000
    19  H    0.000000   0.000000   0.000000   0.000000   0.000000   0.000000
    20  C    0.000000   0.000000   0.000000   0.000000   0.000000   0.000000
    21  H    0.000000   0.000000   0.000000   0.000000   0.000000   0.000000
    22  C    0.000000   0.000000   0.000000   0.000000   0.000000   0.000000
    23  H    0.000000   0.000000   0.000000   0.000000   0.000000   0.000000
    24  H    0.000000   0.000000   0.000000   0.000000   0.000000   0.000000
    25  H    0.000000   0.000000   0.000000   0.000000   0.000000   0.000000
    26  C    0.000000   0.000000   0.000000   0.000000   0.000000   0.000000
    27  H    0.000000   0.000000   0.000000   0.000000   0.000000   0.000000
    28  H    0.000000   0.000000   0.000000   0.000000   0.000000   0.000000
    29  C    0.000000   0.000000   0.000000   0.000000   0.000000   0.000000
    30  H    0.000000   0.000000   0.000000   0.000000   0.000000   0.000000
    31  H    0.839441   0.000000   0.000000   0.000000   0.000000   0.000000
    32  H    0.000000   0.823661   0.000000   0.000000   0.000000   0.000000
    33  C    0.000000   0.000000   4.476925   0.000000   0.000000   0.000000
    34  H    0.000000   0.000000   0.000000   0.844277   0.000000   0.000000
    35  H    0.000000   0.000000   0.000000   0.000000   0.822624   0.000000
    36  H    0.000000   0.000000   0.000000   0.000000   0.000000   0.840119
    37  C    0.000000   0.000000   0.000000   0.000000   0.000000   0.000000
    38  H    0.000000   0.000000   0.000000   0.000000   0.000000   0.000000
    39  H    0.000000   0.000000   0.000000   0.000000   0.000000   0.000000
    40  H    0.000000   0.000000   0.000000   0.000000   0.000000   0.000000
              37         38         39         40
     1  C    0.000000   0.000000   0.000000   0.000000
     2  C    0.000000   0.000000   0.000000   0.000000
     3  C    0.000000   0.000000   0.000000   0.000000
     4  C    0.000000   0.000000   0.000000   0.000000
     5  C    0.000000   0.000000   0.000000   0.000000
     6  C    0.000000   0.000000   0.000000   0.000000
     7  C    0.000000   0.000000   0.000000   0.000000
     8  H    0.000000   0.000000   0.000000   0.000000
     9  H    0.000000   0.000000   0.000000   0.000000
    10  H    0.000000   0.000000   0.000000   0.000000
    11  H    0.000000   0.000000   0.000000   0.000000
    12  H    0.000000   0.000000   0.000000   0.000000
    13  H    0.000000   0.000000   0.000000   0.000000
    14  C    0.000000   0.000000   0.000000   0.000000
    15  H    0.000000   0.000000   0.000000   0.000000
    16  H    0.000000   0.000000   0.000000   0.000000
    17  C    0.000000   0.000000   0.000000   0.000000
    18  H    0.000000   0.000000   0.000000   0.000000
    19  H    0.000000   0.000000   0.000000   0.000000
    20  C    0.000000   0.000000   0.000000   0.000000
    21  H    0.000000   0.000000   0.000000   0.000000
    22  C    0.000000   0.000000   0.000000   0.000000
    23  H    0.000000   0.000000   0.000000   0.000000
    24  H    0.000000   0.000000   0.000000   0.000000
    25  H    0.000000   0.000000   0.000000   0.000000
    26  C    0.000000   0.000000   0.000000   0.000000
    27  H    0.000000   0.000000   0.000000   0.000000
    28  H    0.000000   0.000000   0.000000   0.000000
    29  C    0.000000   0.000000   0.000000   0.000000
    30  H    0.000000   0.000000   0.000000   0.000000
    31  H    0.000000   0.000000   0.000000   0.000000
    32  H    0.000000   0.000000   0.000000   0.000000
    33  C    0.000000   0.000000   0.000000   0.000000
    34  H    0.000000   0.000000   0.000000   0.000000
    35  H    0.000000   0.000000   0.000000   0.000000
    36  H    0.000000   0.000000   0.000000   0.000000
    37  C    4.441358   0.000000   0.000000   0.000000
    38  H    0.000000   0.829555   0.000000   0.000000
    39  H    0.000000   0.000000   0.850430   0.000000
    40  H    0.000000   0.000000   0.000000   0.823804
 Mulliken charges:
               1
     1  C   -0.452490
     2  C    0.139085
     3  C   -0.310660
     4  C    0.479293
     5  C   -0.154614
     6  C   -0.216340
     7  C   -0.019948
     8  H    0.236919
     9  H    0.141112
    10  H    0.232303
    11  H    0.183120
    12  H    0.180201
    13  H    0.228378
    14  C   -0.267245
    15  H    0.177222
    16  H    0.173279
    17  C   -0.280670
    18  H    0.181199
    19  H    0.166101
    20  C   -0.214610
    21  H    0.198619
    22  C   -0.431393
    23  H    0.191979
    24  H    0.160521
    25  H    0.168634
    26  C   -0.325636
    27  H    0.186767
    28  H    0.164591
    29  C   -0.474937
    30  H    0.151414
    31  H    0.160559
    32  H    0.176339
    33  C   -0.476925
    34  H    0.155723
    35  H    0.177376
    36  H    0.159881
    37  C   -0.441358
    38  H    0.170445
    39  H    0.149570
    40  H    0.176196
 Sum of Mulliken charges =   1.00000
 Mulliken charges with hydrogens summed into heavy atoms:
               1
     1  C    0.016733
     2  C    0.139085
     3  C    0.013572
     4  C    0.479293
     5  C    0.025587
     6  C    0.012038
     7  C   -0.019948
    14  C    0.083256
    17  C    0.066630
    20  C   -0.015991
    22  C    0.089741
    26  C    0.025721
    29  C    0.013374
    33  C    0.016055
    37  C    0.054853
 APT charges:
               1
     1  C   -0.452490
     2  C    0.139085
     3  C   -0.310660
     4  C    0.479293
     5  C   -0.154614
     6  C   -0.216340
     7  C   -0.019948
     8  H    0.236919
     9  H    0.141112
    10  H    0.232303
    11  H    0.183120
    12  H    0.180201
    13  H    0.228378
    14  C   -0.267245
    15  H    0.177222
    16  H    0.173279
    17  C   -0.280670
    18  H    0.181199
    19  H    0.166101
    20  C   -0.214610
    21  H    0.198619
    22  C   -0.431393
    23  H    0.191979
    24  H    0.160521
    25  H    0.168634
    26  C   -0.325636
    27  H    0.186767
    28  H    0.164591
    29  C   -0.474937
    30  H    0.151414
    31  H    0.160559
    32  H    0.176339
    33  C   -0.476925
    34  H    0.155723
    35  H    0.177376
    36  H    0.159881
    37  C   -0.441358
    38  H    0.170445
    39  H    0.149570
    40  H    0.176196
 Sum of APT charges =   1.00000
 APT charges with hydrogens summed into heavy atoms:
               1
     1  C    0.016733
     2  C    0.139085
     3  C    0.013572
     4  C    0.479293
     5  C    0.025587
     6  C    0.012038
     7  C   -0.019948
    14  C    0.083256
    17  C    0.066630
    20  C   -0.015991
    22  C    0.089741
    26  C    0.025721
    29  C    0.013374
    33  C    0.016055
    37  C    0.054853
 Charge=              1.0000 electrons
 Dipole moment (field-independent basis, Debye):
    X=              2.6462    Y=             -3.1752    Z=              1.1005  Tot=              4.2773
 N-N= 6.293405577617D+02 E-N=-1.066841186477D+03  KE=-1.266543457664D+02
  Exact polarizability:       0.000       0.000       0.000       0.000       0.000       0.000
 Approx polarizability:      74.105       1.387      74.775      -0.902       3.537      63.319
 Leave Link  601 at Thu Mar 27 17:18:43 2025, MaxMem=  8053063680 cpu:               0.0 elap:               0.0
 (Enter /home/apps/g16_C02_zen2/g16/l9999.exe)

 This type of calculation cannot be archived.


      TO SUSPECT YOUR OWN MORTALITY IS TO KNOW THE BEGINNING OF TERROR.
      TO LEARN IRREFUTABLY THAT YOU ARE MORTAL IS TO KNOW THE END
      OF TERROR.

                                                  -- JESSICA
                                                     CHILDREN OF DUNE
                                                     BY FRANK HERBERT
 Job cpu time:       0 days  0 hours  0 minutes 29.6 seconds.
 Elapsed time:       0 days  0 hours  0 minutes 13.4 seconds.
 File lengths (MBytes):  RWF=     15 Int=      0 D2E=      0 Chk=      9 Scr=      1
 Normal termination of Gaussian 16 at Thu Mar 27 17:18:43 2025.
